
     Program BANDS v.7.4.1 starts on  1Nov2025 at 14:12:25 

     This program is part of the open-source Quantum ESPRESSO suite
     for quantum simulation of materials; please cite
         "P. Giannozzi et al., J. Phys.:Condens. Matter 21 395502 (2009);
         "P. Giannozzi et al., J. Phys.:Condens. Matter 29 465901 (2017);
         "P. Giannozzi et al., J. Chem. Phys. 152 154105 (2020);
          URL http://www.quantum-espresso.org", 
     in publications or presentations arising from this work. More details at
     http://www.quantum-espresso.org/quote

     Parallel version (MPI), running on     2 processors

     MPI processes distributed on     1 nodes
     R & G space division:  proc/nbgrp/npool/nimage =       2
     0 MiB available memory on the printing compute node when the environment starts


     Reading xml data from directory:

     ./tmp_cutoff_50/cutoff_50.save/

     IMPORTANT: XC functional enforced from input :
     Exchange-correlation= PBE
                           (   1   4   3   4   0   0   0)
     Any further DFT definition will be discarded
     Please, verify this is what you really want


     Parallelization info
     --------------------
     sticks:   dense  smooth     PW     G-vecs:    dense   smooth      PW
     Min         726     366    105                18162     6469    1054
     Max         727     367    106                18163     6470    1055
     Sum        1453     733    211                36325    12939    2109

     Using Slab Decomposition

     Reading collected, re-writing distributed wavefunctions
     high-symmetry point:  0.0000 0.0000 0.0000   x coordinate   0.0000
     high-symmetry point: -1.0000 0.0000 0.0000   x coordinate   1.0000
     high-symmetry point: -1.0000 0.5000 0.0000   x coordinate   1.5000
     high-symmetry point: -0.7500 0.7500 0.0000   x coordinate   1.8536
     high-symmetry point:  0.0000 0.0000 0.0000   x coordinate   2.9142
     high-symmetry point: -0.5000 0.5000 0.5000   x coordinate   3.7802

     Plottable bands (eV) written to file silicon.bands.dat.gnu
     Bands written to file silicon.bands.dat

 **************************************************************************

                    xk=(   0.00000,   0.00000,   0.00000  )

     point group O_h (m-3m) 
     there are 10 classes
     the character table:

       E     8C3   3C2   6C4   6C2'  i     8S6   3s_h  6S4   6s_d 
A_1g   1.00  1.00  1.00  1.00  1.00  1.00  1.00  1.00  1.00  1.00
A_2g   1.00  1.00  1.00 -1.00 -1.00  1.00  1.00  1.00 -1.00 -1.00
E_g    2.00 -1.00  2.00  0.00  0.00  2.00 -1.00  2.00  0.00  0.00
T_1g   3.00  0.00 -1.00  1.00 -1.00  3.00  0.00 -1.00  1.00 -1.00
T_2g   3.00  0.00 -1.00 -1.00  1.00  3.00  0.00 -1.00 -1.00  1.00
A_1u   1.00  1.00  1.00  1.00  1.00 -1.00 -1.00 -1.00 -1.00 -1.00
A_2u   1.00  1.00  1.00 -1.00 -1.00 -1.00 -1.00 -1.00  1.00  1.00
E_u    2.00 -1.00  2.00  0.00  0.00 -2.00  1.00 -2.00  0.00  0.00
T_1u   3.00  0.00 -1.00  1.00 -1.00 -3.00  0.00  1.00 -1.00  1.00
T_2u   3.00  0.00 -1.00 -1.00  1.00 -3.00  0.00  1.00  1.00 -1.00

     the symmetry operations in each class and the name of the first element:

     E        1
                                                                 
     8C3     17   19   20   18   24   21   22   23
                                                                 
     3C2      2    4    3
                                                                 
     6C4      7    8   15   16   12   11
                                                                 
     6C2'     5    6   14   13   10    9
                                                                 
     i       25
                                                                 
     8S6     41   43   44   42   48   45   46   47
                                                                 
     3s_h    26   28   27
                                                                 
     6S4     31   32   39   40   36   35
                                                                 
     6s_d    29   30   38   37   34   33
                                                                 

     Band symmetry, O_h (m-3m)  point group:

     e(  1 -  1) =     -5.74984  eV     1   --> A_1g G_1   G_1+
     e(  2 -  4) =      6.21858  eV     3   --> T_2g G_25' G_5+
     e(  5 -  7) =      8.77854  eV     3   --> T_1u G_15  G_4-
     e(  8 -  8) =      9.58768  eV     1   --> A_2u G_2'  G_2-

 **************************************************************************

 **************************************************************************

                    xk=(  -0.02500,   0.00000,   0.00000  )

     point group C_4v (4mm) 
     there are  5 classes
     the character table:

       E     2C4   C2    2s_v  2s_d 
A_1    1.00  1.00  1.00  1.00  1.00
A_2    1.00  1.00  1.00 -1.00 -1.00
B_1    1.00 -1.00  1.00  1.00 -1.00
B_2    1.00 -1.00  1.00 -1.00  1.00
E      2.00  0.00 -2.00  0.00  0.00

     the symmetry operations in each class and the name of the first element:

     E        1
                                                                 
     2C4      3    4
                                                                 
     C2       2
                                                                 
     2s_v     5    6
                                                                 
     2s_d     7    8
                                                                 

     Band symmetry, C_4v (4mm)  point group:

     e(  1 -  1) =     -5.74710  eV     1   --> A_1  G_1 D_1   
     e(  2 -  2) =      6.19966  eV     1   --> B_2  G_4 D_2'  
     e(  3 -  4) =      6.20658  eV     2   --> E    G_5 D_5   
     e(  5 -  5) =      8.77172  eV     1   --> A_1  G_1 D_1   
     e(  6 -  7) =      8.79392  eV     2   --> E    G_5 D_5   
     e(  8 -  8) =      9.60624  eV     1   --> B_2  G_4 D_2'  

 **************************************************************************

 **************************************************************************

                    xk=(  -0.05000,   0.00000,   0.00000  )

     Band symmetry, C_4v (4mm)  point group:

     e(  1 -  1) =     -5.73889  eV     1   --> A_1  G_1 D_1   
     e(  2 -  2) =      6.14417  eV     1   --> B_2  G_4 D_2'  
     e(  3 -  4) =      6.17146  eV     2   --> E    G_5 D_5   
     e(  5 -  5) =      8.75144  eV     1   --> A_1  G_1 D_1   
     e(  6 -  7) =      8.83916  eV     2   --> E    G_5 D_5   
     e(  8 -  8) =      9.66044  eV     1   --> B_2  G_4 D_2'  

 **************************************************************************

 **************************************************************************

                    xk=(  -0.07500,   0.00000,   0.00000  )

     Band symmetry, C_4v (4mm)  point group:

     e(  1 -  1) =     -5.72520  eV     1   --> A_1  G_1 D_1   
     e(  2 -  2) =      6.05559  eV     1   --> B_2  G_4 D_2'  
     e(  3 -  4) =      6.11559  eV     2   --> E    G_5 D_5   
     e(  5 -  5) =      8.71833  eV     1   --> A_1  G_1 D_1   
     e(  6 -  7) =      8.91189  eV     2   --> E    G_5 D_5   
     e(  8 -  8) =      9.74622  eV     1   --> B_2  G_4 D_2'  

 **************************************************************************

 **************************************************************************

                    xk=(  -0.10000,   0.00000,   0.00000  )

     Band symmetry, C_4v (4mm)  point group:

     e(  1 -  1) =     -5.70605  eV     1   --> A_1  G_1 D_1   
     e(  2 -  2) =      5.93863  eV     1   --> B_2  G_4 D_2'  
     e(  3 -  4) =      6.04223  eV     2   --> E    G_5 D_5   
     e(  5 -  5) =      8.67333  eV     1   --> A_1  G_1 D_1   
     e(  6 -  7) =      9.00883  eV     2   --> E    G_5 D_5   
     e(  8 -  8) =      9.85775  eV     1   --> B_2  G_4 D_2'  

 **************************************************************************

 **************************************************************************

                    xk=(  -0.12500,   0.00000,   0.00000  )

     Band symmetry, C_4v (4mm)  point group:

     e(  1 -  1) =     -5.68143  eV     1   --> A_1  G_1 D_1   
     e(  2 -  2) =      5.79832  eV     1   --> B_2  G_4 D_2'  
     e(  3 -  4) =      5.95492  eV     2   --> E    G_5 D_5   
     e(  5 -  5) =      8.61765  eV     1   --> A_1  G_1 D_1   
     e(  6 -  7) =      9.12639  eV     2   --> E    G_5 D_5   
     e(  8 -  8) =      9.98821  eV     1   --> B_2  G_4 D_2'  

 **************************************************************************

 **************************************************************************

                    xk=(  -0.15000,   0.00000,   0.00000  )

     Band symmetry, C_4v (4mm)  point group:

     e(  1 -  1) =     -5.65136  eV     1   --> A_1  G_1 D_1   
     e(  2 -  2) =      5.63929  eV     1   --> B_2  G_4 D_2'  
     e(  3 -  4) =      5.85699  eV     2   --> E    G_5 D_5   
     e(  5 -  5) =      8.55265  eV     1   --> A_1  G_1 D_1   
     e(  6 -  7) =      9.26122  eV     2   --> E    G_5 D_5   
     e(  8 -  8) =     10.13015  eV     1   --> B_2  G_4 D_2'  

 **************************************************************************

 **************************************************************************

                    xk=(  -0.17500,   0.00000,   0.00000  )

     Band symmetry, C_4v (4mm)  point group:

     e(  1 -  1) =     -5.61585  eV     1   --> A_1  G_1 D_1   
     e(  2 -  2) =      5.46551  eV     1   --> B_2  G_4 D_2'  
     e(  3 -  4) =      5.75133  eV     2   --> E    G_5 D_5   
     e(  5 -  5) =      8.47976  eV     1   --> A_1  G_1 D_1   
     e(  6 -  7) =      9.41039  eV     2   --> E    G_5 D_5   
     e(  8 -  8) =     10.27526  eV     1   --> B_2  G_4 D_2'  

 **************************************************************************

 **************************************************************************

                    xk=(  -0.20000,   0.00000,   0.00000  )

     Band symmetry, C_4v (4mm)  point group:

     e(  1 -  1) =     -5.57491  eV     1   --> A_1  G_1 D_1   
     e(  2 -  2) =      5.28020  eV     1   --> B_2  G_4 D_2'  
     e(  3 -  4) =      5.64034  eV     2   --> E    G_5 D_5   
     e(  5 -  5) =      8.40043  eV     1   --> A_1  G_1 D_1   
     e(  6 -  7) =      9.57143  eV     2   --> E    G_5 D_5   
     e(  8 -  8) =     10.41372  eV     1   --> B_2  G_4 D_2'  

 **************************************************************************

 **************************************************************************

                    xk=(  -0.22500,   0.00000,   0.00000  )

     Band symmetry, C_4v (4mm)  point group:

     e(  1 -  1) =     -5.52855  eV     1   --> A_1  G_1 D_1   
     e(  2 -  2) =      5.08589  eV     1   --> B_2  G_4 D_2'  
     e(  3 -  4) =      5.52596  eV     2   --> E    G_5 D_5   
     e(  5 -  5) =      8.31604  eV     1   --> A_1  G_1 D_1   
     e(  6 -  7) =      9.74236  eV     2   --> E    G_5 D_5   
     e(  8 -  8) =     10.53330  eV     1   --> B_2  G_4 D_2'  

 **************************************************************************

 **************************************************************************

                    xk=(  -0.25000,   0.00000,   0.00000  )

     Band symmetry, C_4v (4mm)  point group:

     e(  1 -  1) =     -5.47679  eV     1   --> A_1  G_1 D_1   
     e(  2 -  2) =      4.88455  eV     1   --> B_2  G_4 D_2'  
     e(  3 -  4) =      5.40973  eV     2   --> E    G_5 D_5   
     e(  5 -  5) =      8.22788  eV     1   --> A_1  G_1 D_1   
     e(  6 -  7) =      9.92159  eV     2   --> E    G_5 D_5   
     e(  8 -  8) =     10.61913  eV     1   --> B_2  G_4 D_2'  

 **************************************************************************

 **************************************************************************

                    xk=(  -0.27500,   0.00000,   0.00000  )

     Band symmetry, C_4v (4mm)  point group:

     e(  1 -  1) =     -5.41965  eV     1   --> A_1  G_1 D_1   
     e(  2 -  2) =      4.67771  eV     1   --> B_2  G_4 D_2'  
     e(  3 -  4) =      5.29287  eV     2   --> E    G_5 D_5   
     e(  5 -  5) =      8.13715  eV     1   --> A_1  G_1 D_1   
     e(  6 -  7) =     10.10782  eV     2   --> E    G_5 D_5   
     e(  8 -  8) =     10.65613  eV     1   --> B_2  G_4 D_2'  

 **************************************************************************

 **************************************************************************

                    xk=(  -0.30000,   0.00000,   0.00000  )

     Band symmetry, C_4v (4mm)  point group:

     e(  1 -  1) =     -5.35715  eV     1   --> A_1  G_1 D_1   
     e(  2 -  2) =      4.46655  eV     1   --> B_2  G_4 D_2'  
     e(  3 -  4) =      5.17635  eV     2   --> E    G_5 D_5   
     e(  5 -  5) =      8.04491  eV     1   --> A_1  G_1 D_1   
     e(  6 -  7) =     10.30002  eV     2   --> E    G_5 D_5   
     e(  8 -  8) =     10.63509  eV     1   --> B_2  G_4 D_2'  

 **************************************************************************

 **************************************************************************

                    xk=(  -0.32500,   0.00000,   0.00000  )

     Band symmetry, C_4v (4mm)  point group:

     e(  1 -  1) =     -5.28931  eV     1   --> A_1  G_1 D_1   
     e(  2 -  2) =      4.25197  eV     1   --> B_2  G_4 D_2'  
     e(  3 -  4) =      5.06095  eV     2   --> E    G_5 D_5   
     e(  5 -  5) =      7.95211  eV     1   --> A_1  G_1 D_1   
     e(  6 -  7) =     10.49735  eV     2   --> E    G_5 D_5   
     e(  8 -  8) =     10.55794  eV     1   --> B_2  G_4 D_2'  

 **************************************************************************

 **************************************************************************

                    xk=(  -0.35000,   0.00000,   0.00000  )

     Band symmetry, C_4v (4mm)  point group:

     e(  1 -  1) =     -5.21616  eV     1   --> A_1  G_1 D_1   
     e(  2 -  2) =      4.03470  eV     1   --> B_2  G_4 D_2'  
     e(  3 -  4) =      4.94730  eV     2   --> E    G_5 D_5   
     e(  5 -  5) =      7.85961  eV     1   --> A_1  G_1 D_1   
     e(  6 -  6) =     10.43579  eV     1   --> B_2  G_4 D_2'  
     e(  7 -  8) =     10.69914  eV     2   --> E    G_5 D_5   

 **************************************************************************

 **************************************************************************

                    xk=(  -0.37500,   0.00000,   0.00000  )

     Band symmetry, C_4v (4mm)  point group:

     e(  1 -  1) =     -5.13772  eV     1   --> A_1  G_1 D_1   
     e(  2 -  2) =      3.81531  eV     1   --> B_2  G_4 D_2'  
     e(  3 -  4) =      4.83590  eV     2   --> E    G_5 D_5   
     e(  5 -  5) =      7.76816  eV     1   --> A_1  G_1 D_1   
     e(  6 -  6) =     10.28230  eV     1   --> B_2  G_4 D_2'  
     e(  7 -  8) =     10.90482  eV     2   --> E    G_5 D_5   

 **************************************************************************

 **************************************************************************

                    xk=(  -0.40000,   0.00000,   0.00000  )

     Band symmetry, C_4v (4mm)  point group:

     e(  1 -  1) =     -5.05403  eV     1   --> A_1  G_1 D_1   
     e(  2 -  2) =      3.59425  eV     1   --> B_2  G_4 D_2'  
     e(  3 -  4) =      4.72717  eV     2   --> E    G_5 D_5   
     e(  5 -  5) =      7.67840  eV     1   --> A_1  G_1 D_1   
     e(  6 -  6) =     10.10907  eV     1   --> B_2  G_4 D_2'  
     e(  7 -  8) =     11.11391  eV     2   --> E    G_5 D_5   

 **************************************************************************

 **************************************************************************

                    xk=(  -0.42500,   0.00000,   0.00000  )

     Band symmetry, C_4v (4mm)  point group:

     e(  1 -  1) =     -4.96511  eV     1   --> A_1  G_1 D_1   
     e(  2 -  2) =      3.37188  eV     1   --> B_2  G_4 D_2'  
     e(  3 -  4) =      4.62144  eV     2   --> E    G_5 D_5   
     e(  5 -  5) =      7.59092  eV     1   --> A_1  G_1 D_1   
     e(  6 -  6) =      9.92451  eV     1   --> B_2  G_4 D_2'  
     e(  7 -  8) =     11.32603  eV     2   --> E    G_5 D_5   

 **************************************************************************

 **************************************************************************

                    xk=(  -0.45000,   0.00000,   0.00000  )

     Band symmetry, C_4v (4mm)  point group:

     e(  1 -  1) =     -4.87101  eV     1   --> A_1  G_1 D_1   
     e(  2 -  2) =      3.14853  eV     1   --> B_2  G_4 D_2'  
     e(  3 -  4) =      4.51901  eV     2   --> E    G_5 D_5   
     e(  5 -  5) =      7.50623  eV     1   --> A_1  G_1 D_1   
     e(  6 -  6) =      9.73443  eV     1   --> B_2  G_4 D_2'  
     e(  7 -  8) =     11.54085  eV     2   --> E    G_5 D_5   

 **************************************************************************

 **************************************************************************

                    xk=(  -0.47500,   0.00000,   0.00000  )

     Band symmetry, C_4v (4mm)  point group:

     e(  1 -  1) =     -4.77175  eV     1   --> A_1  G_1 D_1   
     e(  2 -  2) =      2.92445  eV     1   --> B_2  G_4 D_2'  
     e(  3 -  4) =      4.42011  eV     2   --> E    G_5 D_5   
     e(  5 -  5) =      7.42478  eV     1   --> A_1  G_1 D_1   
     e(  6 -  6) =      9.54277  eV     1   --> B_2  G_4 D_2'  
     e(  7 -  8) =     11.75809  eV     2   --> E    G_5 D_5   

 **************************************************************************

 **************************************************************************

                    xk=(  -0.50000,   0.00000,   0.00000  )

     Band symmetry, C_4v (4mm)  point group:

     e(  1 -  1) =     -4.66739  eV     1   --> A_1  G_1 D_1   
     e(  2 -  2) =      2.69988  eV     1   --> B_2  G_4 D_2'  
     e(  3 -  4) =      4.32495  eV     2   --> E    G_5 D_5   
     e(  5 -  5) =      7.34697  eV     1   --> A_1  G_1 D_1   
     e(  6 -  6) =      9.35226  eV     1   --> B_2  G_4 D_2'  
     e(  7 -  8) =     11.97753  eV     2   --> E    G_5 D_5   

 **************************************************************************

 **************************************************************************

                    xk=(  -0.52500,   0.00000,   0.00000  )

     Band symmetry, C_4v (4mm)  point group:

     e(  1 -  1) =     -4.55796  eV     1   --> A_1  G_1 D_1   
     e(  2 -  2) =      2.47504  eV     1   --> B_2  G_4 D_2'  
     e(  3 -  4) =      4.23371  eV     2   --> E    G_5 D_5   
     e(  5 -  5) =      7.27315  eV     1   --> A_1  G_1 D_1   
     e(  6 -  6) =      9.16482  eV     1   --> B_2  G_4 D_2'  
     e(  7 -  8) =     12.19897  eV     2   --> E    G_5 D_5   

 **************************************************************************

 **************************************************************************

                    xk=(  -0.55000,   0.00000,   0.00000  )

     Band symmetry, C_4v (4mm)  point group:

     e(  1 -  1) =     -4.44352  eV     1   --> A_1  G_1 D_1   
     e(  2 -  2) =      2.25011  eV     1   --> B_2  G_4 D_2'  
     e(  3 -  4) =      4.14652  eV     2   --> E    G_5 D_5   
     e(  5 -  5) =      7.20365  eV     1   --> A_1  G_1 D_1   
     e(  6 -  6) =      8.98184  eV     1   --> B_2  G_4 D_2'  
     e(  7 -  8) =     12.42225  eV     2   --> E    G_5 D_5   

 **************************************************************************

 **************************************************************************

                    xk=(  -0.57500,   0.00000,   0.00000  )

     Band symmetry, C_4v (4mm)  point group:

     e(  1 -  1) =     -4.32411  eV     1   --> A_1  G_1 D_1   
     e(  2 -  2) =      2.02529  eV     1   --> B_2  G_4 D_2'  
     e(  3 -  4) =      4.06352  eV     2   --> E    G_5 D_5   
     e(  5 -  5) =      7.13874  eV     1   --> A_1  G_1 D_1   
     e(  6 -  6) =      8.80431  eV     1   --> B_2  G_4 D_2'  
     e(  7 -  8) =     12.64725  eV     2   --> E    G_5 D_5   

 **************************************************************************

 **************************************************************************

                    xk=(  -0.60000,   0.00000,   0.00000  )

     Band symmetry, C_4v (4mm)  point group:

     e(  1 -  1) =     -4.19978  eV     1   --> A_1  G_1 D_1   
     e(  2 -  2) =      1.80077  eV     1   --> B_2  G_4 D_2'  
     e(  3 -  4) =      3.98481  eV     2   --> E    G_5 D_5   
     e(  5 -  5) =      7.07868  eV     1   --> A_1  G_1 D_1   
     e(  6 -  6) =      8.63298  eV     1   --> B_2  G_4 D_2'  
     e(  7 -  8) =     12.87384  eV     2   --> E    G_5 D_5   

 **************************************************************************

 **************************************************************************

                    xk=(  -0.62500,   0.00000,   0.00000  )

     Band symmetry, C_4v (4mm)  point group:

     e(  1 -  1) =     -4.07060  eV     1   --> A_1  G_1 D_1   
     e(  2 -  2) =      1.57672  eV     1   --> B_2  G_4 D_2'  
     e(  3 -  4) =      3.91051  eV     2   --> E    G_5 D_5   
     e(  5 -  5) =      7.02372  eV     1   --> A_1  G_1 D_1   
     e(  6 -  6) =      8.46840  eV     1   --> B_2  G_4 D_2'  
     e(  7 -  8) =     13.10195  eV     2   --> E    G_5 D_5   

 **************************************************************************

 **************************************************************************

                    xk=(  -0.65000,   0.00000,   0.00000  )

     Band symmetry, C_4v (4mm)  point group:

     e(  1 -  1) =     -3.93662  eV     1   --> A_1  G_1 D_1   
     e(  2 -  2) =      1.35332  eV     1   --> B_2  G_4 D_2'  
     e(  3 -  4) =      3.84068  eV     2   --> E    G_5 D_5   
     e(  5 -  5) =      6.97406  eV     1   --> A_1  G_1 D_1   
     e(  6 -  6) =      8.31096  eV     1   --> B_2  G_4 D_2'  
     e(  7 -  8) =     13.33147  eV     2   --> E    G_5 D_5   

 **************************************************************************

 **************************************************************************

                    xk=(  -0.67500,   0.00000,   0.00000  )

     Band symmetry, C_4v (4mm)  point group:

     e(  1 -  1) =     -3.79792  eV     1   --> A_1  G_1 D_1   
     e(  2 -  2) =      1.13077  eV     1   --> B_2  G_4 D_2'  
     e(  3 -  4) =      3.77540  eV     2   --> E    G_5 D_5   
     e(  5 -  5) =      6.92990  eV     1   --> A_1  G_1 D_1   
     e(  6 -  6) =      8.16099  eV     1   --> B_2  G_4 D_2'  
     e(  7 -  8) =     13.56235  eV     2   --> E    G_5 D_5   

 **************************************************************************

 **************************************************************************

                    xk=(  -0.70000,   0.00000,   0.00000  )

     Band symmetry, C_4v (4mm)  point group:

     e(  1 -  1) =     -3.65456  eV     1   --> A_1  G_1 D_1   
     e(  2 -  2) =      0.90923  eV     1   --> B_2  G_4 D_2'  
     e(  3 -  4) =      3.71473  eV     2   --> E    G_5 D_5   
     e(  5 -  5) =      6.89141  eV     1   --> A_1  G_1 D_1   
     e(  6 -  6) =      8.01869  eV     1   --> B_2  G_4 D_2'  
     e(  7 -  8) =     13.79449  eV     2   --> E    G_5 D_5   

 **************************************************************************

 **************************************************************************

                    xk=(  -0.72500,   0.00000,   0.00000  )

     Band symmetry, C_4v (4mm)  point group:

     e(  1 -  1) =     -3.50662  eV     1   --> A_1  G_1 D_1   
     e(  2 -  2) =      0.68891  eV     1   --> B_2  G_4 D_2'  
     e(  3 -  4) =      3.65875  eV     2   --> E    G_5 D_5   
     e(  5 -  5) =      6.85878  eV     1   --> A_1  G_1 D_1   
     e(  6 -  6) =      7.88422  eV     1   --> B_2  G_4 D_2'  
     e(  7 -  8) =     14.02783  eV     2   --> E    G_5 D_5   

 **************************************************************************

 **************************************************************************

                    xk=(  -0.75000,   0.00000,   0.00000  )

     Band symmetry, C_4v (4mm)  point group:

     e(  1 -  1) =     -3.35417  eV     1   --> A_1  G_1 D_1   
     e(  2 -  2) =      0.46997  eV     1   --> B_2  G_4 D_2'  
     e(  3 -  4) =      3.60748  eV     2   --> E    G_5 D_5   
     e(  5 -  5) =      6.83217  eV     1   --> A_1  G_1 D_1   
     e(  6 -  6) =      7.75767  eV     1   --> B_2  G_4 D_2'  
     e(  7 -  8) =     14.26222  eV     2   --> E    G_5 D_5   

 **************************************************************************

 **************************************************************************

                    xk=(  -0.77500,   0.00000,   0.00000  )

     Band symmetry, C_4v (4mm)  point group:

     e(  1 -  1) =     -3.19731  eV     1   --> A_1  G_1 D_1   
     e(  2 -  2) =      0.25261  eV     1   --> B_2  G_4 D_2'  
     e(  3 -  4) =      3.56098  eV     2   --> E    G_5 D_5   
     e(  5 -  5) =      6.81171  eV     1   --> A_1  G_1 D_1   
     e(  6 -  6) =      7.63910  eV     1   --> B_2  G_4 D_2'  
     e(  7 -  8) =     14.49750  eV     2   --> E    G_5 D_5   

 **************************************************************************

 **************************************************************************

                    xk=(  -0.80000,   0.00000,   0.00000  )

     Band symmetry, C_4v (4mm)  point group:

     e(  1 -  1) =     -3.03611  eV     1   --> A_1  G_1 D_1   
     e(  2 -  2) =      0.03701  eV     1   --> B_2  G_4 D_2'  
     e(  3 -  4) =      3.51928  eV     2   --> E    G_5 D_5   
     e(  5 -  5) =      6.79756  eV     1   --> A_1  G_1 D_1   
     e(  6 -  6) =      7.52852  eV     1   --> B_2  G_4 D_2'  
     e(  7 -  8) =     14.73342  eV     2   --> E    G_5 D_5   

 **************************************************************************

 **************************************************************************

                    xk=(  -0.82500,   0.00000,   0.00000  )

     Band symmetry, C_4v (4mm)  point group:

     e(  1 -  1) =     -2.87068  eV     1   --> A_1  G_1 D_1   
     e(  2 -  2) =     -0.17665  eV     1   --> B_2  G_4 D_2'  
     e(  3 -  4) =      3.48242  eV     2   --> E    G_5 D_5   
     e(  5 -  5) =      6.78987  eV     1   --> A_1  G_1 D_1   
     e(  6 -  6) =      7.42593  eV     1   --> B_2  G_4 D_2'  
     e(  7 -  8) =     14.96959  eV     2   --> E    G_5 D_5   

 **************************************************************************

 **************************************************************************

                    xk=(  -0.85000,   0.00000,   0.00000  )

     Band symmetry, C_4v (4mm)  point group:

     e(  1 -  1) =     -2.70112  eV     1   --> A_1  G_1 D_1   
     e(  2 -  2) =     -0.38819  eV     1   --> B_2  G_4 D_2'  
     e(  3 -  4) =      3.45042  eV     2   --> E    G_5 D_5   
     e(  5 -  5) =      6.78875  eV     1   --> A_1  G_1 D_1   
     e(  6 -  6) =      7.33130  eV     1   --> B_2  G_4 D_2'  
     e(  7 -  8) =     15.20533  eV     2   --> E    G_5 D_5   

 **************************************************************************

 **************************************************************************

                    xk=(  -0.87500,   0.00000,   0.00000  )

     Band symmetry, C_4v (4mm)  point group:

     e(  1 -  1) =     -2.52752  eV     1   --> A_1  G_1 D_1   
     e(  2 -  2) =     -0.59742  eV     1   --> B_2  G_4 D_2'  
     e(  3 -  4) =      3.42330  eV     2   --> E    G_5 D_5   
     e(  5 -  5) =      6.79433  eV     1   --> A_1  G_1 D_1   
     e(  6 -  6) =      7.24458  eV     1   --> B_2  G_4 D_2'  
     e(  7 -  8) =     15.43951  eV     2   --> E    G_5 D_5   

 **************************************************************************

 **************************************************************************

                    xk=(  -0.90000,   0.00000,   0.00000  )

     Band symmetry, C_4v (4mm)  point group:

     e(  1 -  1) =     -2.35000  eV     1   --> A_1  G_1 D_1   
     e(  2 -  2) =     -0.80419  eV     1   --> B_2  G_4 D_2'  
     e(  3 -  4) =      3.40109  eV     2   --> E    G_5 D_5   
     e(  5 -  5) =      6.80675  eV     1   --> A_1  G_1 D_1   
     e(  6 -  6) =      7.16570  eV     1   --> B_2  G_4 D_2'  
     e(  7 -  8) =     15.66999  eV     2   --> E    G_5 D_5   

 **************************************************************************

 **************************************************************************

                    xk=(  -0.92500,   0.00000,   0.00000  )

     Band symmetry, C_4v (4mm)  point group:

     e(  1 -  1) =     -2.16869  eV     1   --> A_1  G_1 D_1   
     e(  2 -  2) =     -1.00831  eV     1   --> B_2  G_4 D_2'  
     e(  3 -  4) =      3.38380  eV     2   --> E    G_5 D_5   
     e(  5 -  5) =      6.82611  eV     1   --> A_1  G_1 D_1   
     e(  6 -  6) =      7.09460  eV     1   --> B_2  G_4 D_2'  
     e(  7 -  8) =     15.89241  eV     2   --> E    G_5 D_5   

 **************************************************************************

 **************************************************************************

                    xk=(  -0.95000,   0.00000,   0.00000  )

     Band symmetry, C_4v (4mm)  point group:

     e(  1 -  1) =     -1.98369  eV     1   --> A_1  G_1 D_1   
     e(  2 -  2) =     -1.20962  eV     1   --> B_2  G_4 D_2'  
     e(  3 -  4) =      3.37144  eV     2   --> E    G_5 D_5   
     e(  5 -  5) =      6.85255  eV     1   --> A_1  G_1 D_1   
     e(  6 -  6) =      7.03119  eV     1   --> B_2  G_4 D_2'  
     e(  7 -  8) =     16.09687  eV     2   --> E    G_5 D_5   

 **************************************************************************

 **************************************************************************

                    xk=(  -0.97500,   0.00000,   0.00000  )

     Band symmetry, C_4v (4mm)  point group:

     e(  1 -  1) =     -1.79515  eV     1   --> A_1  G_1 D_1   
     e(  2 -  2) =     -1.40797  eV     1   --> B_2  G_4 D_2'  
     e(  3 -  4) =      3.36402  eV     2   --> E    G_5 D_5   
     e(  5 -  5) =      6.88616  eV     1   --> A_1  G_1 D_1   
     e(  6 -  6) =      6.97538  eV     1   --> B_2  G_4 D_2'  
     e(  7 -  8) =     16.25884  eV     2   --> E    G_5 D_5   

 **************************************************************************

 **************************************************************************

                    xk=(  -1.00000,   0.00000,   0.00000  )

     zone border point and non-symmorphic group 
     symmetry decomposition not available

 **************************************************************************

 **************************************************************************

                    xk=(  -1.00000,   0.01250,   0.00000  )

     zone border point and non-symmorphic group 
     symmetry decomposition not available

 **************************************************************************

 **************************************************************************

                    xk=(  -1.00000,   0.02500,   0.00000  )

     zone border point and non-symmorphic group 
     symmetry decomposition not available

 **************************************************************************

 **************************************************************************

                    xk=(  -1.00000,   0.03750,   0.00000  )

     zone border point and non-symmorphic group 
     symmetry decomposition not available

 **************************************************************************

 **************************************************************************

                    xk=(  -1.00000,   0.05000,   0.00000  )

     zone border point and non-symmorphic group 
     symmetry decomposition not available

 **************************************************************************

 **************************************************************************

                    xk=(  -1.00000,   0.06250,   0.00000  )

     zone border point and non-symmorphic group 
     symmetry decomposition not available

 **************************************************************************

 **************************************************************************

                    xk=(  -1.00000,   0.07500,   0.00000  )

     zone border point and non-symmorphic group 
     symmetry decomposition not available

 **************************************************************************

 **************************************************************************

                    xk=(  -1.00000,   0.08750,   0.00000  )

     zone border point and non-symmorphic group 
     symmetry decomposition not available

 **************************************************************************

 **************************************************************************

                    xk=(  -1.00000,   0.10000,   0.00000  )

     zone border point and non-symmorphic group 
     symmetry decomposition not available

 **************************************************************************

 **************************************************************************

                    xk=(  -1.00000,   0.11250,   0.00000  )

     zone border point and non-symmorphic group 
     symmetry decomposition not available

 **************************************************************************

 **************************************************************************

                    xk=(  -1.00000,   0.12500,   0.00000  )

     zone border point and non-symmorphic group 
     symmetry decomposition not available

 **************************************************************************

 **************************************************************************

                    xk=(  -1.00000,   0.13750,   0.00000  )

     zone border point and non-symmorphic group 
     symmetry decomposition not available

 **************************************************************************

 **************************************************************************

                    xk=(  -1.00000,   0.15000,   0.00000  )

     zone border point and non-symmorphic group 
     symmetry decomposition not available

 **************************************************************************

 **************************************************************************

                    xk=(  -1.00000,   0.16250,   0.00000  )

     zone border point and non-symmorphic group 
     symmetry decomposition not available

 **************************************************************************

 **************************************************************************

                    xk=(  -1.00000,   0.17500,   0.00000  )

     zone border point and non-symmorphic group 
     symmetry decomposition not available

 **************************************************************************

 **************************************************************************

                    xk=(  -1.00000,   0.18750,   0.00000  )

     zone border point and non-symmorphic group 
     symmetry decomposition not available

 **************************************************************************

 **************************************************************************

                    xk=(  -1.00000,   0.20000,   0.00000  )

     zone border point and non-symmorphic group 
     symmetry decomposition not available

 **************************************************************************

 **************************************************************************

                    xk=(  -1.00000,   0.21250,   0.00000  )

     zone border point and non-symmorphic group 
     symmetry decomposition not available

 **************************************************************************

 **************************************************************************

                    xk=(  -1.00000,   0.22500,   0.00000  )

     zone border point and non-symmorphic group 
     symmetry decomposition not available

 **************************************************************************

 **************************************************************************

                    xk=(  -1.00000,   0.23750,   0.00000  )

     zone border point and non-symmorphic group 
     symmetry decomposition not available

 **************************************************************************

 **************************************************************************

                    xk=(  -1.00000,   0.25000,   0.00000  )

     zone border point and non-symmorphic group 
     symmetry decomposition not available

 **************************************************************************

 **************************************************************************

                    xk=(  -1.00000,   0.26250,   0.00000  )

     zone border point and non-symmorphic group 
     symmetry decomposition not available

 **************************************************************************

 **************************************************************************

                    xk=(  -1.00000,   0.27500,   0.00000  )

     zone border point and non-symmorphic group 
     symmetry decomposition not available

 **************************************************************************

 **************************************************************************

                    xk=(  -1.00000,   0.28750,   0.00000  )

     zone border point and non-symmorphic group 
     symmetry decomposition not available

 **************************************************************************

 **************************************************************************

                    xk=(  -1.00000,   0.30000,   0.00000  )

     zone border point and non-symmorphic group 
     symmetry decomposition not available

 **************************************************************************

 **************************************************************************

                    xk=(  -1.00000,   0.31250,   0.00000  )

     zone border point and non-symmorphic group 
     symmetry decomposition not available

 **************************************************************************

 **************************************************************************

                    xk=(  -1.00000,   0.32500,   0.00000  )

     zone border point and non-symmorphic group 
     symmetry decomposition not available

 **************************************************************************

 **************************************************************************

                    xk=(  -1.00000,   0.33750,   0.00000  )

     zone border point and non-symmorphic group 
     symmetry decomposition not available

 **************************************************************************

 **************************************************************************

                    xk=(  -1.00000,   0.35000,   0.00000  )

     zone border point and non-symmorphic group 
     symmetry decomposition not available

 **************************************************************************

 **************************************************************************

                    xk=(  -1.00000,   0.36250,   0.00000  )

     zone border point and non-symmorphic group 
     symmetry decomposition not available

 **************************************************************************

 **************************************************************************

                    xk=(  -1.00000,   0.37500,   0.00000  )

     zone border point and non-symmorphic group 
     symmetry decomposition not available

 **************************************************************************

 **************************************************************************

                    xk=(  -1.00000,   0.38750,   0.00000  )

     zone border point and non-symmorphic group 
     symmetry decomposition not available

 **************************************************************************

 **************************************************************************

                    xk=(  -1.00000,   0.40000,   0.00000  )

     zone border point and non-symmorphic group 
     symmetry decomposition not available

 **************************************************************************

 **************************************************************************

                    xk=(  -1.00000,   0.41250,   0.00000  )

     zone border point and non-symmorphic group 
     symmetry decomposition not available

 **************************************************************************

 **************************************************************************

                    xk=(  -1.00000,   0.42500,   0.00000  )

     zone border point and non-symmorphic group 
     symmetry decomposition not available

 **************************************************************************

 **************************************************************************

                    xk=(  -1.00000,   0.43750,   0.00000  )

     zone border point and non-symmorphic group 
     symmetry decomposition not available

 **************************************************************************

 **************************************************************************

                    xk=(  -1.00000,   0.45000,   0.00000  )

     zone border point and non-symmorphic group 
     symmetry decomposition not available

 **************************************************************************

 **************************************************************************

                    xk=(  -1.00000,   0.46250,   0.00000  )

     zone border point and non-symmorphic group 
     symmetry decomposition not available

 **************************************************************************

 **************************************************************************

                    xk=(  -1.00000,   0.47500,   0.00000  )

     zone border point and non-symmorphic group 
     symmetry decomposition not available

 **************************************************************************

 **************************************************************************

                    xk=(  -1.00000,   0.48750,   0.00000  )

     zone border point and non-symmorphic group 
     symmetry decomposition not available

 **************************************************************************

 **************************************************************************

                    xk=(  -1.00000,   0.50000,   0.00000  )

     zone border point and non-symmorphic group 
     symmetry decomposition not available

 **************************************************************************

 **************************************************************************

                    xk=(  -0.99375,   0.50625,   0.00000  )

     point group C_s (m)    
     there are  2 classes
     the character table:

       E     s    
A'     1.00  1.00
A''    1.00 -1.00

     the symmetry operations in each class and the name of the first element:

     E        1
                                                                 
     s        2
                                                                 

     Band symmetry, C_s (m)     point group:

     e(  1 -  1) =     -1.46727  eV     1   --> A'             
     e(  2 -  2) =     -1.41072  eV     1   --> A''            
     e(  3 -  3) =      2.33866  eV     1   --> A'             
     e(  4 -  4) =      2.38272  eV     1   --> A''            
     e(  5 -  5) =     10.45538  eV     1   --> A''            
     e(  6 -  6) =     10.51037  eV     1   --> A'             
     e(  7 -  7) =     11.21327  eV     1   --> A''            
     e(  8 -  8) =     11.24936  eV     1   --> A'             

 **************************************************************************

 **************************************************************************

                    xk=(  -0.98750,   0.51250,   0.00000  )

     Band symmetry, C_s (m)     point group:

     e(  1 -  1) =     -1.49496  eV     1   --> A'             
     e(  2 -  2) =     -1.38375  eV     1   --> A''            
     e(  3 -  3) =      2.31770  eV     1   --> A'             
     e(  4 -  4) =      2.40736  eV     1   --> A''            
     e(  5 -  5) =     10.39389  eV     1   --> A''            
     e(  6 -  6) =     10.52482  eV     1   --> A'             
     e(  7 -  7) =     11.23160  eV     1   --> A''            
     e(  8 -  8) =     11.28223  eV     1   --> A'             

 **************************************************************************

 **************************************************************************

                    xk=(  -0.98125,   0.51875,   0.00000  )

     Band symmetry, C_s (m)     point group:

     e(  1 -  1) =     -1.52194  eV     1   --> A'             
     e(  2 -  2) =     -1.35796  eV     1   --> A''            
     e(  3 -  3) =      2.29720  eV     1   --> A'             
     e(  4 -  4) =      2.43396  eV     1   --> A''            
     e(  5 -  5) =     10.31350  eV     1   --> A''            
     e(  6 -  6) =     10.53491  eV     1   --> A'             
     e(  7 -  7) =     11.27056  eV     1   --> A''            
     e(  8 -  8) =     11.32051  eV     1   --> A'             

 **************************************************************************

 **************************************************************************

                    xk=(  -0.97500,   0.52500,   0.00000  )

     Band symmetry, C_s (m)     point group:

     e(  1 -  1) =     -1.54822  eV     1   --> A'             
     e(  2 -  2) =     -1.33335  eV     1   --> A''            
     e(  3 -  3) =      2.27718  eV     1   --> A'             
     e(  4 -  4) =      2.46248  eV     1   --> A''            
     e(  5 -  5) =     10.22072  eV     1   --> A''            
     e(  6 -  6) =     10.54112  eV     1   --> A'             
     e(  7 -  7) =     11.32365  eV     1   --> A''            
     e(  8 -  8) =     11.36373  eV     1   --> A'             

 **************************************************************************

 **************************************************************************

                    xk=(  -0.96875,   0.53125,   0.00000  )

     Band symmetry, C_s (m)     point group:

     e(  1 -  1) =     -1.57379  eV     1   --> A'             
     e(  2 -  2) =     -1.30992  eV     1   --> A''            
     e(  3 -  3) =      2.25764  eV     1   --> A'             
     e(  4 -  4) =      2.49290  eV     1   --> A''            
     e(  5 -  5) =     10.12028  eV     1   --> A''            
     e(  6 -  6) =     10.54400  eV     1   --> A'             
     e(  7 -  7) =     11.38620  eV     1   --> A''            
     e(  8 -  8) =     11.41133  eV     1   --> A'             

 **************************************************************************

 **************************************************************************

                    xk=(  -0.96250,   0.53750,   0.00000  )

     Band symmetry, C_s (m)     point group:

     e(  1 -  1) =     -1.59865  eV     1   --> A'             
     e(  2 -  2) =     -1.28765  eV     1   --> A''            
     e(  3 -  3) =      2.23858  eV     1   --> A'             
     e(  4 -  4) =      2.52516  eV     1   --> A''            
     e(  5 -  5) =     10.01523  eV     1   --> A''            
     e(  6 -  6) =     10.54410  eV     1   --> A'             
     e(  7 -  7) =     11.45518  eV     1   --> A''            
     e(  8 -  8) =     11.46274  eV     1   --> A'             

 **************************************************************************

 **************************************************************************

                    xk=(  -0.95625,   0.54375,   0.00000  )

     Band symmetry, C_s (m)     point group:

     e(  1 -  1) =     -1.62280  eV     1   --> A'             
     e(  2 -  2) =     -1.26653  eV     1   --> A''            
     e(  3 -  3) =      2.22002  eV     1   --> A'             
     e(  4 -  4) =      2.55920  eV     1   --> A''            
     e(  5 -  5) =      9.90750  eV     1   --> A''            
     e(  6 -  6) =     10.54193  eV     1   --> A'             
     e(  7 -  7) =     11.51744  eV     1   --> A'             
     e(  8 -  8) =     11.52871  eV     1   --> A''            

 **************************************************************************

 **************************************************************************

                    xk=(  -0.95000,   0.55000,   0.00000  )

     Band symmetry, C_s (m)     point group:

     e(  1 -  1) =     -1.64624  eV     1   --> A'             
     e(  2 -  2) =     -1.24654  eV     1   --> A''            
     e(  3 -  3) =      2.20195  eV     1   --> A'             
     e(  4 -  4) =      2.59496  eV     1   --> A''            
     e(  5 -  5) =      9.79833  eV     1   --> A''            
     e(  6 -  6) =     10.53794  eV     1   --> A'             
     e(  7 -  7) =     11.57496  eV     1   --> A'             
     e(  8 -  8) =     11.60560  eV     1   --> A''            

 **************************************************************************

 **************************************************************************

                    xk=(  -0.94375,   0.55625,   0.00000  )

     Band symmetry, C_s (m)     point group:

     e(  1 -  1) =     -1.66897  eV     1   --> A'             
     e(  2 -  2) =     -1.22766  eV     1   --> A''            
     e(  3 -  3) =      2.18439  eV     1   --> A'             
     e(  4 -  4) =      2.63237  eV     1   --> A''            
     e(  5 -  5) =      9.68854  eV     1   --> A''            
     e(  6 -  6) =     10.53251  eV     1   --> A'             
     e(  7 -  7) =     11.63491  eV     1   --> A'             
     e(  8 -  8) =     11.68506  eV     1   --> A''            

 **************************************************************************

 **************************************************************************

                    xk=(  -0.93750,   0.56250,   0.00000  )

     Band symmetry, C_s (m)     point group:

     e(  1 -  1) =     -1.69098  eV     1   --> A'             
     e(  2 -  2) =     -1.20986  eV     1   --> A''            
     e(  3 -  3) =      2.16734  eV     1   --> A'             
     e(  4 -  4) =      2.67135  eV     1   --> A''            
     e(  5 -  5) =      9.57870  eV     1   --> A''            
     e(  6 -  6) =     10.52597  eV     1   --> A'             
     e(  7 -  7) =     11.69695  eV     1   --> A'             
     e(  8 -  8) =     11.76656  eV     1   --> A''            

 **************************************************************************

 **************************************************************************

                    xk=(  -0.93125,   0.56875,   0.00000  )

     Band symmetry, C_s (m)     point group:

     e(  1 -  1) =     -1.71229  eV     1   --> A'             
     e(  2 -  2) =     -1.19312  eV     1   --> A''            
     e(  3 -  3) =      2.15080  eV     1   --> A'             
     e(  4 -  4) =      2.71181  eV     1   --> A''            
     e(  5 -  5) =      9.46925  eV     1   --> A''            
     e(  6 -  6) =     10.51859  eV     1   --> A'             
     e(  7 -  7) =     11.76079  eV     1   --> A'             
     e(  8 -  8) =     11.84976  eV     1   --> A''            

 **************************************************************************

 **************************************************************************

                    xk=(  -0.92500,   0.57500,   0.00000  )

     Band symmetry, C_s (m)     point group:

     e(  1 -  1) =     -1.73287  eV     1   --> A'             
     e(  2 -  2) =     -1.17740  eV     1   --> A''            
     e(  3 -  3) =      2.13478  eV     1   --> A'             
     e(  4 -  4) =      2.75367  eV     1   --> A''            
     e(  5 -  5) =      9.36049  eV     1   --> A''            
     e(  6 -  6) =     10.51059  eV     1   --> A'             
     e(  7 -  7) =     11.82620  eV     1   --> A'             
     e(  8 -  8) =     11.93439  eV     1   --> A''            

 **************************************************************************

 **************************************************************************

                    xk=(  -0.91875,   0.58125,   0.00000  )

     Band symmetry, C_s (m)     point group:

     e(  1 -  1) =     -1.75275  eV     1   --> A'             
     e(  2 -  2) =     -1.16267  eV     1   --> A''            
     e(  3 -  3) =      2.11928  eV     1   --> A'             
     e(  4 -  4) =      2.79680  eV     1   --> A''            
     e(  5 -  5) =      9.25267  eV     1   --> A''            
     e(  6 -  6) =     10.50215  eV     1   --> A'             
     e(  7 -  7) =     11.89297  eV     1   --> A'             
     e(  8 -  8) =     12.02026  eV     1   --> A''            

 **************************************************************************

 **************************************************************************

                    xk=(  -0.91250,   0.58750,   0.00000  )

     Band symmetry, C_s (m)     point group:

     e(  1 -  1) =     -1.77190  eV     1   --> A'             
     e(  2 -  2) =     -1.14889  eV     1   --> A''            
     e(  3 -  3) =      2.10431  eV     1   --> A'             
     e(  4 -  4) =      2.84111  eV     1   --> A''            
     e(  5 -  5) =      9.14602  eV     1   --> A''            
     e(  6 -  6) =     10.49342  eV     1   --> A'             
     e(  7 -  7) =     11.96094  eV     1   --> A'             
     e(  8 -  8) =     12.10723  eV     1   --> A''            

 **************************************************************************

 **************************************************************************

                    xk=(  -0.90625,   0.59375,   0.00000  )

     Band symmetry, C_s (m)     point group:

     e(  1 -  1) =     -1.79034  eV     1   --> A'             
     e(  2 -  2) =     -1.13603  eV     1   --> A''            
     e(  3 -  3) =      2.08988  eV     1   --> A'             
     e(  4 -  4) =      2.88647  eV     1   --> A''            
     e(  5 -  5) =      9.04073  eV     1   --> A''            
     e(  6 -  6) =     10.48452  eV     1   --> A'             
     e(  7 -  7) =     12.02997  eV     1   --> A'             
     e(  8 -  8) =     12.19519  eV     1   --> A''            

 **************************************************************************

 **************************************************************************

                    xk=(  -0.90000,   0.60000,   0.00000  )

     Band symmetry, C_s (m)     point group:

     e(  1 -  1) =     -1.80807  eV     1   --> A'             
     e(  2 -  2) =     -1.12405  eV     1   --> A''            
     e(  3 -  3) =      2.07598  eV     1   --> A'             
     e(  4 -  4) =      2.93276  eV     1   --> A''            
     e(  5 -  5) =      8.93695  eV     1   --> A''            
     e(  6 -  6) =     10.47555  eV     1   --> A'             
     e(  7 -  7) =     12.09993  eV     1   --> A'             
     e(  8 -  8) =     12.28404  eV     1   --> A''            

 **************************************************************************

 **************************************************************************

                    xk=(  -0.89375,   0.60625,   0.00000  )

     Band symmetry, C_s (m)     point group:

     e(  1 -  1) =     -1.82507  eV     1   --> A'             
     e(  2 -  2) =     -1.11291  eV     1   --> A''            
     e(  3 -  3) =      2.06262  eV     1   --> A'             
     e(  4 -  4) =      2.97983  eV     1   --> A''            
     e(  5 -  5) =      8.83487  eV     1   --> A''            
     e(  6 -  6) =     10.46661  eV     1   --> A'             
     e(  7 -  7) =     12.17072  eV     1   --> A'             
     e(  8 -  8) =     12.37372  eV     1   --> A''            

 **************************************************************************

 **************************************************************************

                    xk=(  -0.88750,   0.61250,   0.00000  )

     Band symmetry, C_s (m)     point group:

     e(  1 -  1) =     -1.84136  eV     1   --> A'             
     e(  2 -  2) =     -1.10257  eV     1   --> A''            
     e(  3 -  3) =      2.04980  eV     1   --> A'             
     e(  4 -  4) =      3.02754  eV     1   --> A''            
     e(  5 -  5) =      8.73463  eV     1   --> A''            
     e(  6 -  6) =     10.45775  eV     1   --> A'             
     e(  7 -  7) =     12.24225  eV     1   --> A'             
     e(  8 -  8) =     12.46418  eV     1   --> A''            

 **************************************************************************

 **************************************************************************

                    xk=(  -0.88125,   0.61875,   0.00000  )

     Band symmetry, C_s (m)     point group:

     e(  1 -  1) =     -1.85692  eV     1   --> A'             
     e(  2 -  2) =     -1.09300  eV     1   --> A''            
     e(  3 -  3) =      2.03753  eV     1   --> A'             
     e(  4 -  4) =      3.07572  eV     1   --> A''            
     e(  5 -  5) =      8.63640  eV     1   --> A''            
     e(  6 -  6) =     10.44904  eV     1   --> A'             
     e(  7 -  7) =     12.31442  eV     1   --> A'             
     e(  8 -  8) =     12.55535  eV     1   --> A''            

 **************************************************************************

 **************************************************************************

                    xk=(  -0.87500,   0.62500,   0.00000  )

     Band symmetry, C_s (m)     point group:

     e(  1 -  1) =     -1.87177  eV     1   --> A'             
     e(  2 -  2) =     -1.08416  eV     1   --> A''            
     e(  3 -  3) =      2.02581  eV     1   --> A'             
     e(  4 -  4) =      3.12421  eV     1   --> A''            
     e(  5 -  5) =      8.54035  eV     1   --> A''            
     e(  6 -  6) =     10.44053  eV     1   --> A'             
     e(  7 -  7) =     12.38716  eV     1   --> A'             
     e(  8 -  8) =     12.64721  eV     1   --> A''            

 **************************************************************************

 **************************************************************************

                    xk=(  -0.86875,   0.63125,   0.00000  )

     Band symmetry, C_s (m)     point group:

     e(  1 -  1) =     -1.88589  eV     1   --> A'             
     e(  2 -  2) =     -1.07601  eV     1   --> A''            
     e(  3 -  3) =      2.01465  eV     1   --> A'             
     e(  4 -  4) =      3.17282  eV     1   --> A''            
     e(  5 -  5) =      8.44665  eV     1   --> A''            
     e(  6 -  6) =     10.43227  eV     1   --> A'             
     e(  7 -  7) =     12.46040  eV     1   --> A'             
     e(  8 -  8) =     12.73969  eV     1   --> A''            

 **************************************************************************

 **************************************************************************

                    xk=(  -0.86250,   0.63750,   0.00000  )

     Band symmetry, C_s (m)     point group:

     e(  1 -  1) =     -1.89930  eV     1   --> A'             
     e(  2 -  2) =     -1.06851  eV     1   --> A''            
     e(  3 -  3) =      2.00404  eV     1   --> A'             
     e(  4 -  4) =      3.22137  eV     1   --> A''            
     e(  5 -  5) =      8.35548  eV     1   --> A''            
     e(  6 -  6) =     10.42428  eV     1   --> A'             
     e(  7 -  7) =     12.53406  eV     1   --> A'             
     e(  8 -  8) =     12.83278  eV     1   --> A''            

 **************************************************************************

 **************************************************************************

                    xk=(  -0.85625,   0.64375,   0.00000  )

     Band symmetry, C_s (m)     point group:

     e(  1 -  1) =     -1.91198  eV     1   --> A'             
     e(  2 -  2) =     -1.06163  eV     1   --> A''            
     e(  3 -  3) =      1.99399  eV     1   --> A'             
     e(  4 -  4) =      3.26963  eV     1   --> A''            
     e(  5 -  5) =      8.26703  eV     1   --> A''            
     e(  6 -  6) =     10.41660  eV     1   --> A'             
     e(  7 -  7) =     12.60807  eV     1   --> A'             
     e(  8 -  8) =     12.92643  eV     1   --> A''            

 **************************************************************************

 **************************************************************************

                    xk=(  -0.85000,   0.65000,   0.00000  )

     Band symmetry, C_s (m)     point group:

     e(  1 -  1) =     -1.92394  eV     1   --> A'             
     e(  2 -  2) =     -1.05534  eV     1   --> A''            
     e(  3 -  3) =      1.98450  eV     1   --> A'             
     e(  4 -  4) =      3.31739  eV     1   --> A''            
     e(  5 -  5) =      8.18151  eV     1   --> A''            
     e(  6 -  6) =     10.40925  eV     1   --> A'             
     e(  7 -  7) =     12.68237  eV     1   --> A'             
     e(  8 -  8) =     13.02061  eV     1   --> A''            

 **************************************************************************

 **************************************************************************

                    xk=(  -0.84375,   0.65625,   0.00000  )

     Band symmetry, C_s (m)     point group:

     e(  1 -  1) =     -1.93518  eV     1   --> A'             
     e(  2 -  2) =     -1.04960  eV     1   --> A''            
     e(  3 -  3) =      1.97557  eV     1   --> A'             
     e(  4 -  4) =      3.36442  eV     1   --> A''            
     e(  5 -  5) =      8.09913  eV     1   --> A''            
     e(  6 -  6) =     10.40226  eV     1   --> A'             
     e(  7 -  7) =     12.75687  eV     1   --> A'             
     e(  8 -  8) =     13.11529  eV     1   --> A''            

 **************************************************************************

 **************************************************************************

                    xk=(  -0.83750,   0.66250,   0.00000  )

     Band symmetry, C_s (m)     point group:

     e(  1 -  1) =     -1.94569  eV     1   --> A'             
     e(  2 -  2) =     -1.04438  eV     1   --> A''            
     e(  3 -  3) =      1.96721  eV     1   --> A'             
     e(  4 -  4) =      3.41045  eV     1   --> A''            
     e(  5 -  5) =      8.02013  eV     1   --> A''            
     e(  6 -  6) =     10.39565  eV     1   --> A'             
     e(  7 -  7) =     12.83149  eV     1   --> A'             
     e(  8 -  8) =     13.21042  eV     1   --> A''            

 **************************************************************************

 **************************************************************************

                    xk=(  -0.83125,   0.66875,   0.00000  )

     Band symmetry, C_s (m)     point group:

     e(  1 -  1) =     -1.95548  eV     1   --> A'             
     e(  2 -  2) =     -1.03965  eV     1   --> A''            
     e(  3 -  3) =      1.95942  eV     1   --> A'             
     e(  4 -  4) =      3.45524  eV     1   --> A''            
     e(  5 -  5) =      7.94475  eV     1   --> A''            
     e(  6 -  6) =     10.38944  eV     1   --> A'             
     e(  7 -  7) =     12.90614  eV     1   --> A'             
     e(  8 -  8) =     13.30598  eV     1   --> A''            

 **************************************************************************

 **************************************************************************

                    xk=(  -0.82500,   0.67500,   0.00000  )

     Band symmetry, C_s (m)     point group:

     e(  1 -  1) =     -1.96455  eV     1   --> A'             
     e(  2 -  2) =     -1.03538  eV     1   --> A''            
     e(  3 -  3) =      1.95220  eV     1   --> A'             
     e(  4 -  4) =      3.49848  eV     1   --> A''            
     e(  5 -  5) =      7.87326  eV     1   --> A''            
     e(  6 -  6) =     10.38363  eV     1   --> A'             
     e(  7 -  7) =     12.98072  eV     1   --> A'             
     e(  8 -  8) =     13.40193  eV     1   --> A''            

 **************************************************************************

 **************************************************************************

                    xk=(  -0.81875,   0.68125,   0.00000  )

     Band symmetry, C_s (m)     point group:

     e(  1 -  1) =     -1.97289  eV     1   --> A'             
     e(  2 -  2) =     -1.03155  eV     1   --> A''            
     e(  3 -  3) =      1.94555  eV     1   --> A'             
     e(  4 -  4) =      3.53990  eV     1   --> A''            
     e(  5 -  5) =      7.80593  eV     1   --> A''            
     e(  6 -  6) =     10.37826  eV     1   --> A'             
     e(  7 -  7) =     13.05508  eV     1   --> A'             
     e(  8 -  8) =     13.49820  eV     1   --> A''            

 **************************************************************************

 **************************************************************************

                    xk=(  -0.81250,   0.68750,   0.00000  )

     Band symmetry, C_s (m)     point group:

     e(  1 -  1) =     -1.98051  eV     1   --> A'             
     e(  2 -  2) =     -1.02813  eV     1   --> A''            
     e(  3 -  3) =      1.93947  eV     1   --> A'             
     e(  4 -  4) =      3.57919  eV     1   --> A''            
     e(  5 -  5) =      7.74304  eV     1   --> A''            
     e(  6 -  6) =     10.37331  eV     1   --> A'             
     e(  7 -  7) =     13.12907  eV     1   --> A'             
     e(  8 -  8) =     13.59475  eV     1   --> A''            

 **************************************************************************

 **************************************************************************

                    xk=(  -0.80625,   0.69375,   0.00000  )

     Band symmetry, C_s (m)     point group:

     e(  1 -  1) =     -1.98740  eV     1   --> A'             
     e(  2 -  2) =     -1.02511  eV     1   --> A''            
     e(  3 -  3) =      1.93397  eV     1   --> A'             
     e(  4 -  4) =      3.61603  eV     1   --> A''            
     e(  5 -  5) =      7.68491  eV     1   --> A''            
     e(  6 -  6) =     10.36881  eV     1   --> A'             
     e(  7 -  7) =     13.20247  eV     1   --> A'             
     e(  8 -  8) =     13.69149  eV     1   --> A''            

 **************************************************************************

 **************************************************************************

                    xk=(  -0.80000,   0.70000,   0.00000  )

     Band symmetry, C_s (m)     point group:

     e(  1 -  1) =     -1.99357  eV     1   --> A'             
     e(  2 -  2) =     -1.02246  eV     1   --> A''            
     e(  3 -  3) =      1.92904  eV     1   --> A'             
     e(  4 -  4) =      3.65011  eV     1   --> A''            
     e(  5 -  5) =      7.63181  eV     1   --> A''            
     e(  6 -  6) =     10.36476  eV     1   --> A'             
     e(  7 -  7) =     13.27498  eV     1   --> A'             
     e(  8 -  8) =     13.78834  eV     1   --> A''            

 **************************************************************************

 **************************************************************************

                    xk=(  -0.79375,   0.70625,   0.00000  )

     Band symmetry, C_s (m)     point group:

     e(  1 -  1) =     -1.99902  eV     1   --> A'             
     e(  2 -  2) =     -1.02016  eV     1   --> A''            
     e(  3 -  3) =      1.92469  eV     1   --> A'             
     e(  4 -  4) =      3.68111  eV     1   --> A''            
     e(  5 -  5) =      7.58407  eV     1   --> A''            
     e(  6 -  6) =     10.36118  eV     1   --> A'             
     e(  7 -  7) =     13.34620  eV     1   --> A'             
     e(  8 -  8) =     13.88516  eV     1   --> A''            

 **************************************************************************

 **************************************************************************

                    xk=(  -0.78750,   0.71250,   0.00000  )

     Band symmetry, C_s (m)     point group:

     e(  1 -  1) =     -2.00373  eV     1   --> A'             
     e(  2 -  2) =     -1.01820  eV     1   --> A''            
     e(  3 -  3) =      1.92092  eV     1   --> A'             
     e(  4 -  4) =      3.70873  eV     1   --> A''            
     e(  5 -  5) =      7.54196  eV     1   --> A''            
     e(  6 -  6) =     10.35806  eV     1   --> A'             
     e(  7 -  7) =     13.41552  eV     1   --> A'             
     e(  8 -  8) =     13.98173  eV     1   --> A''            

 **************************************************************************

 **************************************************************************

                    xk=(  -0.78125,   0.71875,   0.00000  )

     Band symmetry, C_s (m)     point group:

     e(  1 -  1) =     -2.00773  eV     1   --> A'             
     e(  2 -  2) =     -1.01657  eV     1   --> A''            
     e(  3 -  3) =      1.91773  eV     1   --> A'             
     e(  4 -  4) =      3.73268  eV     1   --> A''            
     e(  5 -  5) =      7.50578  eV     1   --> A''            
     e(  6 -  6) =     10.35541  eV     1   --> A'             
     e(  7 -  7) =     13.48204  eV     1   --> A'             
     e(  8 -  8) =     14.07771  eV     1   --> A''            

 **************************************************************************

 **************************************************************************

                    xk=(  -0.77500,   0.72500,   0.00000  )

     Band symmetry, C_s (m)     point group:

     e(  1 -  1) =     -2.01099  eV     1   --> A'             
     e(  2 -  2) =     -1.01525  eV     1   --> A''            
     e(  3 -  3) =      1.91511  eV     1   --> A'             
     e(  4 -  4) =      3.75268  eV     1   --> A''            
     e(  5 -  5) =      7.47578  eV     1   --> A''            
     e(  6 -  6) =     10.35324  eV     1   --> A'             
     e(  7 -  7) =     13.54433  eV     1   --> A'             
     e(  8 -  8) =     14.17247  eV     1   --> A''            

 **************************************************************************

 **************************************************************************

                    xk=(  -0.76875,   0.73125,   0.00000  )

     Band symmetry, C_s (m)     point group:

     e(  1 -  1) =     -2.01353  eV     1   --> A'             
     e(  2 -  2) =     -1.01423  eV     1   --> A''            
     e(  3 -  3) =      1.91308  eV     1   --> A'             
     e(  4 -  4) =      3.76850  eV     1   --> A''            
     e(  5 -  5) =      7.45219  eV     1   --> A''            
     e(  6 -  6) =     10.35155  eV     1   --> A'             
     e(  7 -  7) =     13.60015  eV     1   --> A'             
     e(  8 -  8) =     14.26471  eV     1   --> A''            

 **************************************************************************

 **************************************************************************

                    xk=(  -0.76250,   0.73750,   0.00000  )

     Band symmetry, C_s (m)     point group:

     e(  1 -  1) =     -2.01535  eV     1   --> A'             
     e(  2 -  2) =     -1.01351  eV     1   --> A''            
     e(  3 -  3) =      1.91163  eV     1   --> A'             
     e(  4 -  4) =      3.77994  eV     1   --> A''            
     e(  5 -  5) =      7.43519  eV     1   --> A''            
     e(  6 -  6) =     10.35034  eV     1   --> A'             
     e(  7 -  7) =     13.64600  eV     1   --> A'             
     e(  8 -  8) =     14.28034  eV     1   --> A'             

 **************************************************************************

 **************************************************************************

                    xk=(  -0.75625,   0.74375,   0.00000  )

     Band symmetry, C_s (m)     point group:

     e(  1 -  1) =     -2.01644  eV     1   --> A'             
     e(  2 -  2) =     -1.01308  eV     1   --> A''            
     e(  3 -  3) =      1.91076  eV     1   --> A'             
     e(  4 -  4) =      3.78687  eV     1   --> A''            
     e(  5 -  5) =      7.42494  eV     1   --> A''            
     e(  6 -  6) =     10.34961  eV     1   --> A'             
     e(  7 -  7) =     13.67702  eV     1   --> A'             
     e(  8 -  8) =     14.24947  eV     1   --> A'             

 **************************************************************************

 **************************************************************************

                    xk=(  -0.75000,   0.75000,   0.00000  )

     point group C_2v (mm2) 
     there are  4 classes
     the character table:

       E     C2    s_v   s_v' 
A_1    1.00  1.00  1.00  1.00
A_2    1.00  1.00 -1.00 -1.00
B_1    1.00 -1.00  1.00 -1.00
B_2    1.00 -1.00 -1.00  1.00

     the symmetry operations in each class and the name of the first element:

     E        1
                                                                 
     C2       2
                                                                 
     s_v      4
                                                                 
     s_v'     3
                                                                 

     Band symmetry, C_2v (mm2)  point group:

     e(  1 -  1) =     -2.01680  eV     1   --> A_1  D_1  S_1  
     e(  2 -  2) =     -1.01294  eV     1   --> B_1  D_3  S_3  
     e(  3 -  3) =      1.91046  eV     1   --> A_1  D_1  S_1  
     e(  4 -  4) =      3.78919  eV     1   --> A_2  D_2  S_2  
     e(  5 -  5) =      7.42151  eV     1   --> B_1  D_3  S_3  
     e(  6 -  6) =     10.34937  eV     1   --> A_1  D_1  S_1  
     e(  7 -  7) =     13.68814  eV     1   --> B_2  D_4  S_4  
     e(  8 -  8) =     14.23841  eV     1   --> A_1  D_1  S_1  

 **************************************************************************

 **************************************************************************

                    xk=(  -0.73125,   0.73125,   0.00000  )

     Band symmetry, C_2v (mm2)  point group:

     e(  1 -  1) =     -2.10577  eV     1   --> A_1  D_1  S_1  
     e(  2 -  2) =     -0.92140  eV     1   --> B_1  D_3  S_3  
     e(  3 -  3) =      1.85400  eV     1   --> A_1  D_1  S_1  
     e(  4 -  4) =      3.85337  eV     1   --> A_2  D_2  S_2  
     e(  5 -  5) =      7.49587  eV     1   --> B_1  D_3  S_3  
     e(  6 -  6) =     10.72944  eV     1   --> A_1  D_1  S_1  
     e(  7 -  7) =     13.45775  eV     1   --> B_2  D_4  S_4  
     e(  8 -  8) =     14.00334  eV     1   --> A_1  D_1  S_1  

 **************************************************************************

 **************************************************************************

                    xk=(  -0.71250,   0.71250,   0.00000  )

     Band symmetry, C_2v (mm2)  point group:

     e(  1 -  1) =     -2.20470  eV     1   --> A_1  D_1  S_1  
     e(  2 -  2) =     -0.82335  eV     1   --> B_1  D_3  S_3  
     e(  3 -  3) =      1.81610  eV     1   --> A_1  D_1  S_1  
     e(  4 -  4) =      3.92142  eV     1   --> A_2  D_2  S_2  
     e(  5 -  5) =      7.57473  eV     1   --> B_1  D_3  S_3  
     e(  6 -  6) =     11.11324  eV     1   --> A_1  D_1  S_1  
     e(  7 -  7) =     13.23121  eV     1   --> B_2  D_4  S_4  
     e(  8 -  8) =     13.77723  eV     1   --> A_1  D_1  S_1  

 **************************************************************************

 **************************************************************************

                    xk=(  -0.69375,   0.69375,   0.00000  )

     Band symmetry, C_2v (mm2)  point group:

     e(  1 -  1) =     -2.31289  eV     1   --> A_1  D_1  S_1  
     e(  2 -  2) =     -0.71880  eV     1   --> B_1  D_3  S_3  
     e(  3 -  3) =      1.79657  eV     1   --> A_1  D_1  S_1  
     e(  4 -  4) =      3.99318  eV     1   --> A_2  D_2  S_2  
     e(  5 -  5) =      7.65786  eV     1   --> B_1  D_3  S_3  
     e(  6 -  6) =     11.49635  eV     1   --> A_1  D_1  S_1  
     e(  7 -  7) =     13.00887  eV     1   --> B_2  D_4  S_4  
     e(  8 -  8) =     13.56385  eV     1   --> A_1  D_1  S_1  

 **************************************************************************

 **************************************************************************

                    xk=(  -0.67500,   0.67500,   0.00000  )

     Band symmetry, C_2v (mm2)  point group:

     e(  1 -  1) =     -2.42939  eV     1   --> A_1  D_1  S_1  
     e(  2 -  2) =     -0.60778  eV     1   --> B_1  D_3  S_3  
     e(  3 -  3) =      1.79483  eV     1   --> A_1  D_1  S_1  
     e(  4 -  4) =      4.06842  eV     1   --> A_2  D_2  S_2  
     e(  5 -  5) =      7.74498  eV     1   --> B_1  D_3  S_3  
     e(  6 -  6) =     11.86878  eV     1   --> A_1  D_1  S_1  
     e(  7 -  7) =     12.79102  eV     1   --> B_2  D_4  S_4  
     e(  8 -  8) =     13.37239  eV     1   --> A_1  D_1  S_1  

 **************************************************************************

 **************************************************************************

                    xk=(  -0.65625,   0.65625,   0.00000  )

     Band symmetry, C_2v (mm2)  point group:

     e(  1 -  1) =     -2.55306  eV     1   --> A_1  D_1  S_1  
     e(  2 -  2) =     -0.49032  eV     1   --> B_1  D_3  S_3  
     e(  3 -  3) =      1.81007  eV     1   --> A_1  D_1  S_1  
     e(  4 -  4) =      4.14692  eV     1   --> A_2  D_2  S_2  
     e(  5 -  5) =      7.83577  eV     1   --> B_1  D_3  S_3  
     e(  6 -  6) =     12.20170  eV     1   --> A_1  D_1  S_1  
     e(  7 -  7) =     12.57791  eV     1   --> B_2  D_4  S_4  
     e(  8 -  8) =     13.23095  eV     1   --> A_1  D_1  S_1  

 **************************************************************************

 **************************************************************************

                    xk=(  -0.63750,   0.63750,   0.00000  )

     Band symmetry, C_2v (mm2)  point group:

     e(  1 -  1) =     -2.68267  eV     1   --> A_1  D_1  S_1  
     e(  2 -  2) =     -0.36645  eV     1   --> B_1  D_3  S_3  
     e(  3 -  3) =      1.84129  eV     1   --> A_1  D_1  S_1  
     e(  4 -  4) =      4.22845  eV     1   --> A_2  D_2  S_2  
     e(  5 -  5) =      7.92987  eV     1   --> B_1  D_3  S_3  
     e(  6 -  6) =     12.36973  eV     1   --> B_2  D_4  S_4  
     e(  7 -  7) =     12.40800  eV     1   --> A_1  D_1  S_1  
     e(  8 -  8) =     13.22571  eV     1   --> A_1  D_1  S_1  

 **************************************************************************

 **************************************************************************

                    xk=(  -0.61875,   0.61875,   0.00000  )

     Band symmetry, C_2v (mm2)  point group:

[...]

 **************************************************************************

                    xk=(  -0.12500,   0.12500,   0.12500  )

     Band symmetry, C_3v (3m)   point group:

     e(  1 -  1) =     -5.54561  eV     1   --> A_1  L_1       
     e(  2 -  2) =      4.61806  eV     1   --> A_1  L_1       
     e(  3 -  4) =      5.92874  eV     2   --> E    L_3       
     e(  5 -  5) =      8.72009  eV     1   --> A_1  L_1       
     e(  6 -  7) =      9.20391  eV     2   --> E    L_3       
     e(  8 -  8) =     10.93338  eV     1   --> A_1  L_1       

 **************************************************************************

 **************************************************************************

                    xk=(  -0.13750,   0.13750,   0.13750  )

     Band symmetry, C_3v (3m)   point group:

     e(  1 -  1) =     -5.50303  eV     1   --> A_1  L_1       
     e(  2 -  2) =      4.38515  eV     1   --> A_1  L_1       
     e(  3 -  4) =      5.88098  eV     2   --> E    L_3       
     e(  5 -  5) =      8.67786  eV     1   --> A_1  L_1       
     e(  6 -  7) =      9.27217  eV     2   --> E    L_3       
     e(  8 -  8) =     11.15322  eV     1   --> A_1  L_1       

 **************************************************************************

 **************************************************************************

                    xk=(  -0.15000,   0.15000,   0.15000  )

     Band symmetry, C_3v (3m)   point group:

     e(  1 -  1) =     -5.45652  eV     1   --> A_1  L_1       
     e(  2 -  2) =      4.15011  eV     1   --> A_1  L_1       
     e(  3 -  4) =      5.83235  eV     2   --> E    L_3       
     e(  5 -  5) =      8.63279  eV     1   --> A_1  L_1       
     e(  6 -  7) =      9.33996  eV     2   --> E    L_3       
     e(  8 -  8) =     11.37609  eV     1   --> A_1  L_1       

 **************************************************************************

 **************************************************************************

                    xk=(  -0.16250,   0.16250,   0.16250  )

     Band symmetry, C_3v (3m)   point group:

     e(  1 -  1) =     -5.40613  eV     1   --> A_1  L_1       
     e(  2 -  2) =      3.91397  eV     1   --> A_1  L_1       
     e(  3 -  4) =      5.78333  eV     2   --> E    L_3       
     e(  5 -  5) =      8.58573  eV     1   --> A_1  L_1       
     e(  6 -  7) =      9.40595  eV     2   --> E    L_3       
     e(  8 -  8) =     11.60066  eV     1   --> A_1  L_1       

 **************************************************************************

 **************************************************************************

                    xk=(  -0.17500,   0.17500,   0.17500  )

     Band symmetry, C_3v (3m)   point group:

     e(  1 -  1) =     -5.35191  eV     1   --> A_1  L_1       
     e(  2 -  2) =      3.67762  eV     1   --> A_1  L_1       
     e(  3 -  4) =      5.73431  eV     2   --> E    L_3       
     e(  5 -  5) =      8.53739  eV     1   --> A_1  L_1       
     e(  6 -  7) =      9.46881  eV     2   --> E    L_3       
     e(  8 -  8) =     11.82585  eV     1   --> A_1  L_1       

 **************************************************************************

 **************************************************************************

                    xk=(  -0.18750,   0.18750,   0.18750  )

     Band symmetry, C_3v (3m)   point group:

     e(  1 -  1) =     -5.29390  eV     1   --> A_1  L_1       
     e(  2 -  2) =      3.44175  eV     1   --> A_1  L_1       
     e(  3 -  4) =      5.68566  eV     2   --> E    L_3       
     e(  5 -  5) =      8.48837  eV     1   --> A_1  L_1       
     e(  6 -  7) =      9.52731  eV     2   --> E    L_3       
     e(  8 -  8) =     12.05080  eV     1   --> A_1  L_1       

 **************************************************************************

 **************************************************************************

                    xk=(  -0.20000,   0.20000,   0.20000  )

     Band symmetry, C_3v (3m)   point group:

     e(  1 -  1) =     -5.23218  eV     1   --> A_1  L_1       
     e(  2 -  2) =      3.20694  eV     1   --> A_1  L_1       
     e(  3 -  4) =      5.63768  eV     2   --> E    L_3       
     e(  5 -  5) =      8.43917  eV     1   --> A_1  L_1       
     e(  6 -  7) =      9.58034  eV     2   --> E    L_3       
     e(  8 -  8) =     12.27472  eV     1   --> A_1  L_1       

 **************************************************************************

 **************************************************************************

                    xk=(  -0.21250,   0.21250,   0.21250  )

     Band symmetry, C_3v (3m)   point group:

     e(  1 -  1) =     -5.16681  eV     1   --> A_1  L_1       
     e(  2 -  2) =      2.97370  eV     1   --> A_1  L_1       
     e(  3 -  4) =      5.59062  eV     2   --> E    L_3       
     e(  5 -  5) =      8.39021  eV     1   --> A_1  L_1       
     e(  6 -  7) =      9.62696  eV     2   --> E    L_3       
     e(  8 -  8) =     12.49682  eV     1   --> A_1  L_1       

 **************************************************************************

 **************************************************************************

                    xk=(  -0.22500,   0.22500,   0.22500  )

     Band symmetry, C_3v (3m)   point group:

     e(  1 -  1) =     -5.09788  eV     1   --> A_1  L_1       
     e(  2 -  2) =      2.74249  eV     1   --> A_1  L_1       
     e(  3 -  4) =      5.54470  eV     2   --> E    L_3       
     e(  5 -  5) =      8.34184  eV     1   --> A_1  L_1       
     e(  6 -  7) =      9.66648  eV     2   --> E    L_3       
     e(  8 -  8) =     12.71621  eV     1   --> A_1  L_1       

 **************************************************************************

 **************************************************************************

                    xk=(  -0.23750,   0.23750,   0.23750  )

     Band symmetry, C_3v (3m)   point group:

     e(  1 -  1) =     -5.02549  eV     1   --> A_1  L_1       
     e(  2 -  2) =      2.51371  eV     1   --> A_1  L_1       
     e(  3 -  4) =      5.50012  eV     2   --> E    L_3       
     e(  5 -  5) =      8.29437  eV     1   --> A_1  L_1       
     e(  6 -  7) =      9.69848  eV     2   --> E    L_3       
     e(  8 -  8) =     12.93175  eV     1   --> A_1  L_1       

 **************************************************************************

 **************************************************************************

                    xk=(  -0.25000,   0.25000,   0.25000  )

     Band symmetry, C_3v (3m)   point group:

     e(  1 -  1) =     -4.94976  eV     1   --> A_1  L_1       
     e(  2 -  2) =      2.28772  eV     1   --> A_1  L_1       
     e(  3 -  4) =      5.45704  eV     2   --> E    L_3       
     e(  5 -  5) =      8.24807  eV     1   --> A_1  L_1       
     e(  6 -  7) =      9.72283  eV     2   --> E    L_3       
     e(  8 -  8) =     13.14180  eV     1   --> A_1  L_1       

 **************************************************************************

 **************************************************************************

                    xk=(  -0.26250,   0.26250,   0.26250  )

     Band symmetry, C_3v (3m)   point group:

     e(  1 -  1) =     -4.87081  eV     1   --> A_1  L_1       
     e(  2 -  2) =      2.06490  eV     1   --> A_1  L_1       
     e(  3 -  4) =      5.41558  eV     2   --> E    L_3       
     e(  5 -  5) =      8.20315  eV     1   --> A_1  L_1       
     e(  6 -  7) =      9.73970  eV     2   --> E    L_3       
     e(  8 -  8) =     13.34399  eV     1   --> A_1  L_1       

 **************************************************************************

 **************************************************************************

                    xk=(  -0.27500,   0.27500,   0.27500  )

     Band symmetry, C_3v (3m)   point group:

     e(  1 -  1) =     -4.78880  eV     1   --> A_1  L_1       
     e(  2 -  2) =      1.84557  eV     1   --> A_1  L_1       
     e(  3 -  4) =      5.37587  eV     2   --> E    L_3       
     e(  5 -  5) =      8.15981  eV     1   --> A_1  L_1       
     e(  6 -  7) =      9.74952  eV     2   --> E    L_3       
     e(  8 -  8) =     13.53472  eV     1   --> A_1  L_1       

 **************************************************************************

 **************************************************************************

                    xk=(  -0.28750,   0.28750,   0.28750  )

     Band symmetry, C_3v (3m)   point group:

     e(  1 -  1) =     -4.70393  eV     1   --> A_1  L_1       
     e(  2 -  2) =      1.63011  eV     1   --> A_1  L_1       
     e(  3 -  4) =      5.33799  eV     2   --> E    L_3       
     e(  5 -  5) =      8.11821  eV     1   --> A_1  L_1       
     e(  6 -  7) =      9.75292  eV     2   --> E    L_3       
     e(  8 -  8) =     13.69840  eV     1   -->   ?

 **************************************************************************

 **************************************************************************

                    xk=(  -0.30000,   0.30000,   0.30000  )

     Band symmetry, C_3v (3m)   point group:

     e(  1 -  1) =     -4.61642  eV     1   --> A_1  L_1       
     e(  2 -  2) =      1.41887  eV     1   --> A_1  L_1       
     e(  3 -  4) =      5.30203  eV     2   --> E    L_3       
     e(  5 -  5) =      8.07848  eV     1   --> A_1  L_1       
     e(  6 -  7) =      9.75069  eV     2   --> E    L_3       
     e(  8 -  8) =     13.82072  eV     1   -->   ?

 **************************************************************************

 **************************************************************************

                    xk=(  -0.31250,   0.31250,   0.31250  )

     Band symmetry, C_3v (3m)   point group:

     e(  1 -  1) =     -4.52653  eV     1   --> A_1  L_1       
     e(  2 -  2) =      1.21226  eV     1   --> A_1  L_1       
     e(  3 -  4) =      5.26805  eV     2   --> E    L_3       
     e(  5 -  5) =      8.04075  eV     1   --> A_1  L_1       
     e(  6 -  7) =      9.74370  eV     2   --> E    L_3       
     e(  8 -  8) =     13.95685  eV     1   -->   ?

 **************************************************************************

 **************************************************************************

                    xk=(  -0.32500,   0.32500,   0.32500  )

     Band symmetry, C_3v (3m)   point group:

     e(  1 -  1) =     -4.43458  eV     1   --> A_1  L_1       
     e(  2 -  2) =      1.01070  eV     1   --> A_1  L_1       
     e(  3 -  4) =      5.23611  eV     2   --> E    L_3       
     e(  5 -  5) =      8.00511  eV     1   --> A_1  L_1       
     e(  6 -  7) =      9.73287  eV     2   --> E    L_3       
     e(  8 -  8) =     14.05778  eV     1   --> A_1  L_1       

 **************************************************************************

 **************************************************************************

                    xk=(  -0.33750,   0.33750,   0.33750  )

     Band symmetry, C_3v (3m)   point group:

     e(  1 -  1) =     -4.34096  eV     1   --> A_1  L_1       
     e(  2 -  2) =      0.81468  eV     1   --> A_1  L_1       
     e(  3 -  4) =      5.20626  eV     2   --> E    L_3       
     e(  5 -  5) =      7.97166  eV     1   --> A_1  L_1       
     e(  6 -  7) =      9.71907  eV     2   --> E    L_3       
     e(  8 -  8) =     14.10367  eV     1   --> A_1  L_1       

 **************************************************************************

 **************************************************************************

                    xk=(  -0.35000,   0.35000,   0.35000  )

     Band symmetry, C_3v (3m)   point group:

     e(  1 -  1) =     -4.24616  eV     1   --> A_1  L_1       
     e(  2 -  2) =      0.62475  eV     1   --> A_1  L_1       
     e(  3 -  4) =      5.17852  eV     2   --> E    L_3       
     e(  5 -  5) =      7.94046  eV     1   --> A_1  L_1       
     e(  6 -  7) =      9.70315  eV     2   --> E    L_3       
     e(  8 -  8) =     14.12153  eV     1   --> A_1  L_1       

 **************************************************************************

 **************************************************************************

                    xk=(  -0.36250,   0.36250,   0.36250  )

     Band symmetry, C_3v (3m)   point group:

     e(  1 -  1) =     -4.15074  eV     1   --> A_1  L_1       
     e(  2 -  2) =      0.44158  eV     1   --> A_1  L_1       
     e(  3 -  4) =      5.15293  eV     2   --> E    L_3       
     e(  5 -  5) =      7.91159  eV     1   --> A_1  L_1       
     e(  6 -  7) =      9.68590  eV     2   --> E    L_3       
     e(  8 -  8) =     14.12025  eV     1   --> A_1  L_1       

 **************************************************************************

 **************************************************************************

                    xk=(  -0.37500,   0.37500,   0.37500  )

     Band symmetry, C_3v (3m)   point group:

     e(  1 -  1) =     -4.05542  eV     1   --> A_1  L_1       
     e(  2 -  2) =      0.26594  eV     1   --> A_1  L_1       
     e(  3 -  4) =      5.12952  eV     2   --> E    L_3       
     e(  5 -  5) =      7.88508  eV     1   --> A_1  L_1       
     e(  6 -  7) =      9.66802  eV     2   --> E    L_3       
     e(  8 -  8) =     14.10725  eV     1   --> A_1  L_1       

 **************************************************************************

 **************************************************************************

                    xk=(  -0.38750,   0.38750,   0.38750  )

     Band symmetry, C_3v (3m)   point group:

     e(  1 -  1) =     -3.96107  eV     1   --> A_1  L_1       
     e(  2 -  2) =      0.09877  eV     1   --> A_1  L_1       
     e(  3 -  4) =      5.10829  eV     2   --> E    L_3       
     e(  5 -  5) =      7.86099  eV     1   --> A_1  L_1       
     e(  6 -  7) =      9.65014  eV     2   --> E    L_3       
     e(  8 -  8) =     14.08786  eV     1   --> A_1  L_1       

 **************************************************************************

 **************************************************************************

                    xk=(  -0.40000,   0.40000,   0.40000  )

     Band symmetry, C_3v (3m)   point group:

     e(  1 -  1) =     -3.86880  eV     1   --> A_1  L_1       
     e(  2 -  2) =     -0.05879  eV     1   --> A_1  L_1       
     e(  3 -  4) =      5.08927  eV     2   --> E    L_3       
     e(  5 -  5) =      7.83935  eV     1   --> A_1  L_1       
     e(  6 -  7) =      9.63281  eV     2   --> E    L_3       
     e(  8 -  8) =     14.06560  eV     1   --> A_1  L_1       

 **************************************************************************

 **************************************************************************

                    xk=(  -0.41250,   0.41250,   0.41250  )

     Band symmetry, C_3v (3m)   point group:

     e(  1 -  1) =     -3.77990  eV     1   --> A_1  L_1       
     e(  2 -  2) =     -0.20539  eV     1   --> A_1  L_1       
     e(  3 -  4) =      5.07248  eV     2   --> E    L_3       
     e(  5 -  5) =      7.82020  eV     1   --> A_1  L_1       
     e(  6 -  7) =      9.61649  eV     2   --> E    L_3       
     e(  8 -  8) =     14.04281  eV     1   --> A_1  L_1       

 **************************************************************************

 **************************************************************************

                    xk=(  -0.42500,   0.42500,   0.42500  )

     Band symmetry, C_3v (3m)   point group:

     e(  1 -  1) =     -3.69601  eV     1   --> A_1  L_1       
     e(  2 -  2) =     -0.33936  eV     1   --> A_1  L_1       
     e(  3 -  4) =      5.05790  eV     2   --> E    L_3       
     e(  5 -  5) =      7.80355  eV     1   --> A_1  L_1       
     e(  6 -  7) =      9.60159  eV     2   --> E    L_3       
     e(  8 -  8) =     14.02107  eV     1   --> A_1  L_1       

 **************************************************************************

 **************************************************************************

                    xk=(  -0.43750,   0.43750,   0.43750  )

     Band symmetry, C_3v (3m)   point group:

     e(  1 -  1) =     -3.61902  eV     1   --> A_1  L_1       
     e(  2 -  2) =     -0.45878  eV     1   --> A_1  L_1       
     e(  3 -  4) =      5.04557  eV     2   --> E    L_3       
     e(  5 -  5) =      7.78943  eV     1   --> A_1  L_1       
     e(  6 -  7) =      9.58846  eV     2   --> E    L_3       
     e(  8 -  8) =     14.00141  eV     1   --> A_1  L_1       

 **************************************************************************

 **************************************************************************

                    xk=(  -0.45000,   0.45000,   0.45000  )

     Band symmetry, C_3v (3m)   point group:

     e(  1 -  1) =     -3.55113  eV     1   --> A_1  L_1       
     e(  2 -  2) =     -0.56141  eV     1   --> A_1  L_1       
     e(  3 -  4) =      5.03547  eV     2   --> E    L_3       
     e(  5 -  5) =      7.77786  eV     1   --> A_1  L_1       
     e(  6 -  7) =      9.57735  eV     2   --> E    L_3       
     e(  8 -  8) =     13.98458  eV     1   --> A_1  L_1       

 **************************************************************************

 **************************************************************************

                    xk=(  -0.46250,   0.46250,   0.46250  )

     Band symmetry, C_3v (3m)   point group:

     e(  1 -  1) =     -3.49474  eV     1   --> A_1  L_1       
     e(  2 -  2) =     -0.64485  eV     1   --> A_1  L_1       
     e(  3 -  4) =      5.02761  eV     2   --> E    L_3       
     e(  5 -  5) =      7.76885  eV     1   --> A_1  L_1       
     e(  6 -  7) =      9.56849  eV     2   --> E    L_3       
     e(  8 -  8) =     13.97105  eV     1   --> A_1  L_1       

 **************************************************************************

 **************************************************************************

                    xk=(  -0.47500,   0.47500,   0.47500  )

     Band symmetry, C_3v (3m)   point group:

     e(  1 -  1) =     -3.45225  eV     1   --> A_1  L_1       
     e(  2 -  2) =     -0.70668  eV     1   --> A_1  L_1       
     e(  3 -  4) =      5.02200  eV     2   --> E    L_3       
     e(  5 -  5) =      7.76241  eV     1   --> A_1  L_1       
     e(  6 -  7) =      9.56205  eV     2   --> E    L_3       
     e(  8 -  8) =     13.96118  eV     1   --> A_1  L_1       

 **************************************************************************

 **************************************************************************

                    xk=(  -0.48750,   0.48750,   0.48750  )

     Band symmetry, C_3v (3m)   point group:

     e(  1 -  1) =     -3.42577  eV     1   --> A_1  L_1       
     e(  2 -  2) =     -0.74477  eV     1   --> A_1  L_1       
     e(  3 -  4) =      5.01863  eV     2   --> E    L_3       
     e(  5 -  5) =      7.75854  eV     1   --> A_1  L_1       
     e(  6 -  7) =      9.55814  eV     2   --> E    L_3       
     e(  8 -  8) =     13.95517  eV     1   --> A_1  L_1       

 **************************************************************************

 **************************************************************************

                    xk=(  -0.50000,   0.50000,   0.50000  )

     zone border point and non-symmorphic group 
     symmetry decomposition not available

 **************************************************************************

     BANDS        :      3.40s CPU      3.79s WALL


   This run was terminated on:  14:12:29   1Nov2025            

=------------------------------------------------------------------------------=
   JOB DONE.
=------------------------------------------------------------------------------=
