
     Program PWSCF v.7.4.1 starts on  1Nov2025 at 14:12:13 

     This program is part of the open-source Quantum ESPRESSO suite
     for quantum simulation of materials; please cite
         "P. Giannozzi et al., J. Phys.:Condens. Matter 21 395502 (2009);
         "P. Giannozzi et al., J. Phys.:Condens. Matter 29 465901 (2017);
         "P. Giannozzi et al., J. Chem. Phys. 152 154105 (2020);
          URL http://www.quantum-espresso.org", 
     in publications or presentations arising from this work. More details at
     http://www.quantum-espresso.org/quote

     Parallel version (MPI), running on     2 processors

     MPI processes distributed on     1 nodes
     0 MiB available memory on the printing compute node when the environment starts

     Reading input from scf.in

     Current dimensions of program PWSCF are:
     Max number of different atomic species (ntypx) = 10
     Max number of k-points (npk) =  40000
     Max angular momentum in pseudopotentials (lmaxx) =  4

     R & G space division:  proc/nbgrp/npool/nimage =       2
     Subspace diagonalization in iterative solution of the eigenvalue problem:
     a serial algorithm will be used


     Parallelization info
     --------------------
     sticks:   dense  smooth     PW     G-vecs:    dense   smooth      PW
     Min         726     366    111                18162     6469    1066
     Max         727     367    112                18163     6470    1067
     Sum        1453     733    223                36325    12939    2133

     Using Slab Decomposition



     bravais-lattice index     =            2
     lattice parameter (alat)  =      10.2600  a.u.
     unit-cell volume          =     270.0114 (a.u.)^3
     number of atoms/cell      =            2
     number of atomic types    =            1
     number of electrons       =         8.00
     number of Kohn-Sham states=            8
     kinetic-energy cutoff     =      50.0000  Ry
     charge density cutoff     =     400.0000  Ry
     scf convergence threshold =      1.0E-08
     mixing beta               =       0.7000
     number of iterations used =            8  plain     mixing
     Exchange-correlation= PBE
                           (   1   4   3   4   0   0   0)

     celldm(1)=  10.260000  celldm(2)=   0.000000  celldm(3)=   0.000000
     celldm(4)=   0.000000  celldm(5)=   0.000000  celldm(6)=   0.000000

     crystal axes: (cart. coord. in units of alat)
               a(1) = (  -0.500000   0.000000   0.500000 )  
               a(2) = (   0.000000   0.500000   0.500000 )  
               a(3) = (  -0.500000   0.500000   0.000000 )  

     reciprocal axes: (cart. coord. in units 2 pi/alat)
               b(1) = ( -1.000000 -1.000000  1.000000 )  
               b(2) = (  1.000000  1.000000  1.000000 )  
               b(3) = ( -1.000000  1.000000 -1.000000 )  


     PseudoPot. # 1 for Si read from file:
     /Users/pollob/qe_macm4_build/cases/common/pp/Si.pbe-n-rrkjus_psl.1.0.0.UPF
     MD5 check sum: fa25574f73a70a4139f2adfbefec430c
     Pseudo is Ultrasoft + core correction, Zval =  4.0
     Generated using &quot;atomic&quot; code by A. Dal Corso  v.6.3
     Using radial grid of 1141 points,  6 beta functions with: 
                l(1) =   0
                l(2) =   0
                l(3) =   1
                l(4) =   1
                l(5) =   2
                l(6) =   2
     Q(r) pseudized with 0 coefficients 


     atomic species   valence    mass     pseudopotential
     Si                4.00    28.08500     Si( 1.00)

     48 Sym. Ops., with inversion, found (24 have fractional translation)



   Cartesian axes

     site n.     atom                  positions (alat units)
         1        Si     tau(   1) = (   0.0000000   0.0000000   0.0000000  )
         2        Si     tau(   2) = (  -0.2500000   0.2500000   0.2500000  )

     number of k points=    16  Methfessel-Paxton smearing, width (Ry)=  0.0200
                       cart. coord. in units 2pi/alat
        k(    1) = (   0.0000000   0.0000000   0.0000000), wk =   0.0092593
        k(    2) = (  -0.1666667   0.1666667  -0.1666667), wk =   0.0740741
        k(    3) = (  -0.3333333   0.3333333  -0.3333333), wk =   0.0740741
        k(    4) = (   0.5000000  -0.5000000   0.5000000), wk =   0.0370370
        k(    5) = (   0.0000000   0.3333333   0.0000000), wk =   0.0555556
        k(    6) = (  -0.1666667   0.5000000  -0.1666667), wk =   0.2222222
        k(    7) = (   0.6666667  -0.3333333   0.6666667), wk =   0.2222222
        k(    8) = (   0.5000000  -0.1666667   0.5000000), wk =   0.2222222
        k(    9) = (   0.3333333   0.0000000   0.3333333), wk =   0.1111111
        k(   10) = (   0.0000000   0.6666667   0.0000000), wk =   0.0555556
        k(   11) = (   0.8333333  -0.1666667   0.8333333), wk =   0.2222222
        k(   12) = (   0.6666667  -0.0000000   0.6666667), wk =   0.1111111
        k(   13) = (   0.0000000  -1.0000000   0.0000000), wk =   0.0277778
        k(   14) = (   0.6666667  -0.3333333   1.0000000), wk =   0.2222222
        k(   15) = (   0.5000000  -0.1666667   0.8333333), wk =   0.2222222
        k(   16) = (  -0.3333333  -1.0000000   0.0000000), wk =   0.1111111

     Dense  grid:    36325 G-vectors     FFT dimensions: (  48,  48,  48)

     Smooth grid:    12939 G-vectors     FFT dimensions: (  36,  36,  36)

     Estimated max dynamical RAM per process >      67.08 MB

     Estimated total dynamical RAM >     134.17 MB

     Initial potential from superposition of free atoms

     starting charge       7.9989, renormalised to       8.0000
     Starting wfcs are    8 randomized atomic wfcs

     total cpu time spent up to now is        0.2 secs

     Self-consistent Calculation

     iteration #  1     ecut=    50.00 Ry     beta= 0.70
     Davidson diagonalization with overlap
     ethr =  1.00E-02,  avg # of iterations =  3.6

     Threshold (ethr) on eigenvalues was too large:
     Diagonalizing with lowered threshold

     Davidson diagonalization with overlap
     ethr =  6.58E-04,  avg # of iterations =  2.3

     total cpu time spent up to now is        0.5 secs

     total energy              =     -22.83549708 Ry
     estimated scf accuracy    <       0.05674002 Ry

     iteration #  2     ecut=    50.00 Ry     beta= 0.70
     Davidson diagonalization with overlap
     ethr =  7.09E-04,  avg # of iterations =  1.1

     total cpu time spent up to now is        0.6 secs

     WARNING: integrated charge=     7.99898425, expected=     8.00000000

     total energy              =     -22.83844637 Ry
     estimated scf accuracy    <       0.00225464 Ry

     iteration #  3     ecut=    50.00 Ry     beta= 0.70
     Davidson diagonalization with overlap
     ethr =  2.82E-05,  avg # of iterations =  3.8

     total cpu time spent up to now is        0.8 secs

     WARNING: integrated charge=     7.99844536, expected=     8.00000000

     total energy              =     -22.83875553 Ry
     estimated scf accuracy    <       0.00004829 Ry

     iteration #  4     ecut=    50.00 Ry     beta= 0.70
     Davidson diagonalization with overlap
     ethr =  6.04E-07,  avg # of iterations =  3.8

     total cpu time spent up to now is        1.0 secs

     WARNING: integrated charge=     7.99851882, expected=     8.00000000

     total energy              =     -22.83870877 Ry
     estimated scf accuracy    <       0.00000022 Ry

     iteration #  5     ecut=    50.00 Ry     beta= 0.70
     Davidson diagonalization with overlap
     ethr =  2.69E-09,  avg # of iterations =  3.5

     total cpu time spent up to now is        1.1 secs

     WARNING: integrated charge=     7.99854790, expected=     8.00000000

     total energy              =     -22.83869887 Ry
     estimated scf accuracy    <       0.00000001 Ry

     iteration #  6     ecut=    50.00 Ry     beta= 0.70
     Davidson diagonalization with overlap
     ethr =  1.27E-10,  avg # of iterations =  2.4

     total cpu time spent up to now is        1.3 secs

     End of self-consistent calculation

          k = 0.0000 0.0000 0.0000 (  1639 PWs)   bands (ev):

    -5.7499   6.2185   6.2185   6.2185   8.7785   8.7785   8.7785   9.5876

          k =-0.1667 0.1667-0.1667 (  1591 PWs)   bands (ev):

    -5.3885   3.8351   5.7669   5.7669   8.5697   9.4273   9.4273  11.6757

          k =-0.3333 0.3333-0.3333 (  1609 PWs)   bands (ev):

    -4.3724   0.8793   5.2159   5.2159   7.9825   9.7239   9.7239  14.0934

          k = 0.5000-0.5000 0.5000 (  1622 PWs)   bands (ev):

    -3.4168  -0.7577   5.0175   5.0175   7.7572   9.5568   9.5568  13.9531

          k = 0.0000 0.3333 0.0000 (  1607 PWs)   bands (ev):

    -5.2655   4.1798   5.0228   5.0228   7.9212  10.5215  10.5641  10.5641

          k =-0.1667 0.5000-0.1667 (  1611 PWs)   bands (ev):

    -4.4498   1.7788   4.2228   4.4690   8.1826  10.2858  10.7449  11.2949

          k = 0.6667-0.3333 0.6667 (  1607 PWs)   bands (ev):

    -3.2575  -0.3927   3.4381   4.4389   8.2599  10.3366  10.8407  12.6432

          k = 0.5000-0.1667 0.5000 (  1610 PWs)   bands (ev):

    -3.6428   0.2072   3.1669   4.9187   8.6702  10.3440  10.4474  13.5163

          k = 0.3333 0.0000 0.3333 (  1604 PWs)   bands (ev):

    -4.8000   2.4985   3.8019   5.6523   9.2585   9.7748  10.0693  11.8871

          k = 0.0000 0.6667 0.0000 (  1624 PWs)   bands (ev):

    -3.8447   1.2048   3.7966   3.7966   6.9440   8.2101  13.4852  13.4852

          k = 0.8333-0.1667 0.8333 (  1619 PWs)   bands (ev):

    -2.6801  -0.3510   2.5811   3.6600   7.2805   8.9364  13.6721  13.7038

          k = 0.6667-0.0000 0.6667 (  1612 PWs)   bands (ev):

    -2.4836  -0.5564   1.7995   4.1029   7.7849  12.0248  12.6957  13.3002

          k = 0.0000-1.0000 0.0000 (  1604 PWs)   bands (ev):

    -1.6032  -1.6032   3.3615   3.3615   6.9270   6.9270  16.3262  16.3262

          k = 0.6667-0.3333 1.0000 (  1610 PWs)   bands (ev):

    -3.4592   0.5711   2.6438   3.9197   9.0722   9.9352  10.4548  13.2883

          k = 0.5000-0.1667 0.8333 (  1610 PWs)   bands (ev):

    -2.4735  -0.6296   2.2035   3.4524   9.5755   9.7774  12.3237  12.7405

          k =-0.3333-1.0000 0.0000 (  1618 PWs)   bands (ev):

    -1.4831  -1.4831   2.5682   2.5682   8.9682   8.9682  12.9857  12.9857

     the Fermi energy is     6.4566 ev

     WARNING: integrated charge=     7.99854849, expected=     8.00000000

!    total energy              =     -22.83869897 Ry
     estimated scf accuracy    <          8.5E-11 Ry
     smearing contrib. (-TS)   =       0.00010295 Ry
     internal energy E=F+TS    =     -22.83880192 Ry

     The total energy is F=E-TS. E is the sum of the following terms:
     one-electron contribution =       5.16868211 Ry
     hartree contribution      =       1.10449064 Ry
     xc contribution           =     -12.31104510 Ry
     ewald contribution        =     -16.80092957 Ry

     convergence has been achieved in   6 iterations

     Writing all to output data dir ./tmp_cutoff_50/cutoff_50.save/ :
     XML data file, charge density, pseudopotentials, collected wavefunctions

     init_run     :      0.18s CPU      0.18s WALL (       1 calls)
     electrons    :      0.98s CPU      1.07s WALL (       1 calls)

     Called by init_run:
     wfcinit      :      0.03s CPU      0.03s WALL (       1 calls)
     potinit      :      0.01s CPU      0.01s WALL (       1 calls)
     hinit0       :      0.07s CPU      0.07s WALL (       1 calls)

     Called by electrons:
     c_bands      :      0.61s CPU      0.65s WALL (       7 calls)
     sum_band     :      0.22s CPU      0.25s WALL (       7 calls)
     v_of_rho     :      0.06s CPU      0.06s WALL (       7 calls)
     newd         :      0.11s CPU      0.13s WALL (       7 calls)
     mix_rho      :      0.00s CPU      0.01s WALL (       7 calls)

     Called by c_bands:
     init_us_2    :      0.02s CPU      0.02s WALL (     240 calls)
     cegterg      :      0.57s CPU      0.61s WALL (     112 calls)

     Called by *egterg:
     cdiaghg      :      0.01s CPU      0.01s WALL (     423 calls)
     h_psi        :      0.50s CPU      0.52s WALL (     455 calls)
     s_psi        :      0.02s CPU      0.02s WALL (     455 calls)
     g_psi        :      0.00s CPU      0.00s WALL (     327 calls)

     Called by h_psi:
     h_psi:calbec :      0.03s CPU      0.03s WALL (     455 calls)
     vloc_psi     :      0.45s CPU      0.46s WALL (     455 calls)
     add_vuspsi   :      0.02s CPU      0.03s WALL (     455 calls)

     General routines
     calbec       :      0.03s CPU      0.04s WALL (     567 calls)
     fft          :      0.03s CPU      0.03s WALL (      90 calls)
     ffts         :      0.00s CPU      0.00s WALL (      14 calls)
     fftw         :      0.45s CPU      0.45s WALL (    5950 calls)
     interpolate  :      0.00s CPU      0.00s WALL (       7 calls)

     Parallel routines

     PWSCF        :      1.20s CPU      1.30s WALL


   This run was terminated on:  14:12:14   1Nov2025            

=------------------------------------------------------------------------------=
   JOB DONE.
=------------------------------------------------------------------------------=
Note: The following floating-point exceptions are signalling: IEEE_INVALID_FLAG IEEE_DIVIDE_BY_ZERO IEEE_UNDERFLOW_FLAG
Note: The following floating-point exceptions are signalling: IEEE_UNDERFLOW_FLAG
