
     Program PWSCF v.7.4.1 starts on  1Nov2025 at 14:15:44 

     This program is part of the open-source Quantum ESPRESSO suite
     for quantum simulation of materials; please cite
         "P. Giannozzi et al., J. Phys.:Condens. Matter 21 395502 (2009);
         "P. Giannozzi et al., J. Phys.:Condens. Matter 29 465901 (2017);
         "P. Giannozzi et al., J. Chem. Phys. 152 154105 (2020);
          URL http://www.quantum-espresso.org", 
     in publications or presentations arising from this work. More details at
     http://www.quantum-espresso.org/quote

     Parallel version (MPI), running on     2 processors

     MPI processes distributed on     1 nodes
     0 MiB available memory on the printing compute node when the environment starts

     Reading input from data/Si.nscf.in

     Current dimensions of program PWSCF are:
     Max number of different atomic species (ntypx) = 10
     Max number of k-points (npk) =  40000
     Max angular momentum in pseudopotentials (lmaxx) =  4

     Atomic positions and unit cell read from directory:
     ./tmp/silicon.save/


     R & G space division:  proc/nbgrp/npool/nimage =       2
     Subspace diagonalization in iterative solution of the eigenvalue problem:
     a serial algorithm will be used


     Parallelization info
     --------------------
     sticks:   dense  smooth     PW     G-vecs:    dense   smooth      PW
     Min         429     216     75                 8432     2980     569
     Max         430     217     76                 8433     2981     570
     Sum         859     433    151                16865     5961    1139

     Using Slab Decomposition



     bravais-lattice index     =            2
     lattice parameter (alat)  =      10.2600  a.u.
     unit-cell volume          =     270.0114 (a.u.)^3
     number of atoms/cell      =            2
     number of atomic types    =            1
     number of electrons       =         8.00
     number of Kohn-Sham states=           36
     kinetic-energy cutoff     =      30.0000  Ry
     charge density cutoff     =     240.0000  Ry
     Exchange-correlation= PBE
                           (   1   4   3   4   0   0   0)

     celldm(1)=  10.260000  celldm(2)=   0.000000  celldm(3)=   0.000000
     celldm(4)=   0.000000  celldm(5)=   0.000000  celldm(6)=   0.000000

     crystal axes: (cart. coord. in units of alat)
               a(1) = (  -0.500000   0.000000   0.500000 )  
               a(2) = (   0.000000   0.500000   0.500000 )  
               a(3) = (  -0.500000   0.500000   0.000000 )  

     reciprocal axes: (cart. coord. in units 2 pi/alat)
               b(1) = ( -1.000000 -1.000000  1.000000 )  
               b(2) = (  1.000000  1.000000  1.000000 )  
               b(3) = ( -1.000000  1.000000 -1.000000 )  


     PseudoPot. # 1 for Si read from file:
     ../../common/pp/Si.pbe-n-rrkjus_psl.1.0.0.UPF
     MD5 check sum: fa25574f73a70a4139f2adfbefec430c
     Pseudo is Ultrasoft + core correction, Zval =  4.0
     Generated using &quot;atomic&quot; code by A. Dal Corso  v.6.3
     Using radial grid of 1141 points,  6 beta functions with: 
                l(1) =   0
                l(2) =   0
                l(3) =   1
                l(4) =   1
                l(5) =   2
                l(6) =   2
     Q(r) pseudized with 0 coefficients 


     atomic species   valence    mass     pseudopotential
     Si                4.00    28.08500     Si( 1.00)

     48 Sym. Ops., with inversion, found (24 have fractional translation)



   Cartesian axes

     site n.     atom                  positions (alat units)
         1        Si     tau(   1) = (   0.0000000   0.0000000   0.0000000  )
         2        Si     tau(   2) = (  -0.2500000   0.2500000   0.2500000  )

     number of k points=    72
                       cart. coord. in units 2pi/alat
        k(    1) = (   0.0000000   0.0000000   0.0000000), wk =   0.0011574
        k(    2) = (  -0.0833333   0.0833333  -0.0833333), wk =   0.0092593
        k(    3) = (  -0.1666667   0.1666667  -0.1666667), wk =   0.0092593
        k(    4) = (  -0.2500000   0.2500000  -0.2500000), wk =   0.0092593
        k(    5) = (  -0.3333333   0.3333333  -0.3333333), wk =   0.0092593
        k(    6) = (  -0.4166667   0.4166667  -0.4166667), wk =   0.0092593
        k(    7) = (   0.5000000  -0.5000000   0.5000000), wk =   0.0046296
        k(    8) = (   0.0000000   0.1666667   0.0000000), wk =   0.0069444
        k(    9) = (  -0.0833333   0.2500000  -0.0833333), wk =   0.0277778
        k(   10) = (  -0.1666667   0.3333333  -0.1666667), wk =   0.0277778
        k(   11) = (  -0.2500000   0.4166667  -0.2500000), wk =   0.0277778
        k(   12) = (  -0.3333333   0.5000000  -0.3333333), wk =   0.0277778
        k(   13) = (   0.5833333  -0.4166667   0.5833333), wk =   0.0277778
        k(   14) = (   0.5000000  -0.3333333   0.5000000), wk =   0.0277778
        k(   15) = (   0.4166667  -0.2500000   0.4166667), wk =   0.0277778
        k(   16) = (   0.3333333  -0.1666667   0.3333333), wk =   0.0277778
        k(   17) = (   0.2500000  -0.0833333   0.2500000), wk =   0.0277778
        k(   18) = (   0.1666667  -0.0000000   0.1666667), wk =   0.0138889
        k(   19) = (   0.0000000   0.3333333   0.0000000), wk =   0.0069444
        k(   20) = (  -0.0833333   0.4166667  -0.0833333), wk =   0.0277778
        k(   21) = (  -0.1666667   0.5000000  -0.1666667), wk =   0.0277778
        k(   22) = (  -0.2500000   0.5833333  -0.2500000), wk =   0.0277778
        k(   23) = (   0.6666667  -0.3333333   0.6666667), wk =   0.0277778
        k(   24) = (   0.5833333  -0.2500000   0.5833333), wk =   0.0277778
        k(   25) = (   0.5000000  -0.1666667   0.5000000), wk =   0.0277778
        k(   26) = (   0.4166667  -0.0833333   0.4166667), wk =   0.0277778
        k(   27) = (   0.3333333   0.0000000   0.3333333), wk =   0.0138889
        k(   28) = (   0.0000000   0.5000000   0.0000000), wk =   0.0069444
        k(   29) = (  -0.0833333   0.5833333  -0.0833333), wk =   0.0277778
        k(   30) = (  -0.1666667   0.6666667  -0.1666667), wk =   0.0277778
        k(   31) = (   0.7500000  -0.2500000   0.7500000), wk =   0.0277778
        k(   32) = (   0.6666667  -0.1666667   0.6666667), wk =   0.0277778
        k(   33) = (   0.5833333  -0.0833333   0.5833333), wk =   0.0277778
        k(   34) = (   0.5000000   0.0000000   0.5000000), wk =   0.0138889
        k(   35) = (   0.0000000   0.6666667   0.0000000), wk =   0.0069444
        k(   36) = (  -0.0833333   0.7500000  -0.0833333), wk =   0.0277778
        k(   37) = (   0.8333333  -0.1666667   0.8333333), wk =   0.0277778
        k(   38) = (   0.7500000  -0.0833333   0.7500000), wk =   0.0277778
        k(   39) = (   0.6666667  -0.0000000   0.6666667), wk =   0.0138889
        k(   40) = (   0.0000000   0.8333333   0.0000000), wk =   0.0069444
        k(   41) = (   0.9166667  -0.0833333   0.9166667), wk =   0.0277778
        k(   42) = (   0.8333333   0.0000000   0.8333333), wk =   0.0138889
        k(   43) = (   0.0000000  -1.0000000   0.0000000), wk =   0.0034722
        k(   44) = (  -0.1666667   0.3333333   0.0000000), wk =   0.0277778
        k(   45) = (  -0.2500000   0.4166667  -0.0833333), wk =   0.0555556
        k(   46) = (  -0.3333333   0.5000000  -0.1666667), wk =   0.0555556
        k(   47) = (   0.5833333  -0.4166667   0.7500000), wk =   0.0555556
        k(   48) = (   0.5000000  -0.3333333   0.6666667), wk =   0.0277778
        k(   49) = (  -0.1666667   0.5000000   0.0000000), wk =   0.0277778
        k(   50) = (  -0.2500000   0.5833333  -0.0833333), wk =   0.0555556
        k(   51) = (   0.6666667  -0.3333333   0.8333333), wk =   0.0555556
        k(   52) = (   0.5833333  -0.2500000   0.7500000), wk =   0.0555556
        k(   53) = (   0.5000000  -0.1666667   0.6666667), wk =   0.0555556
        k(   54) = (   0.4166667  -0.0833333   0.5833333), wk =   0.0555556
        k(   55) = (   0.3333333   0.0000000   0.5000000), wk =   0.0277778
        k(   56) = (  -0.1666667   0.6666667  -0.0000000), wk =   0.0277778
        k(   57) = (   0.7500000  -0.2500000   0.9166667), wk =   0.0555556
        k(   58) = (   0.6666667  -0.1666667   0.8333333), wk =   0.0555556
        k(   59) = (   0.5833333  -0.0833333   0.7500000), wk =   0.0555556
        k(   60) = (   0.5000000   0.0000000   0.6666667), wk =   0.0277778
        k(   61) = (   0.8333333  -0.1666667   1.0000000), wk =   0.0277778
        k(   62) = (   0.7500000  -0.0833333   0.9166667), wk =   0.0555556
        k(   63) = (   0.6666667   0.0000000   0.8333333), wk =   0.0277778
        k(   64) = (  -0.1666667  -1.0000000  -0.0000000), wk =   0.0138889
        k(   65) = (   0.6666667  -0.3333333   1.0000000), wk =   0.0277778
        k(   66) = (   0.5833333  -0.2500000   0.9166667), wk =   0.0555556
        k(   67) = (   0.5000000  -0.1666667   0.8333333), wk =   0.0277778
        k(   68) = (   0.6666667  -0.1666667   1.0000000), wk =   0.0277778
        k(   69) = (   0.5833333  -0.0833333   0.9166667), wk =   0.0555556
        k(   70) = (   0.5000000   0.0000000   0.8333333), wk =   0.0277778
        k(   71) = (  -0.3333333  -1.0000000   0.0000000), wk =   0.0138889
        k(   72) = (  -0.5000000  -1.0000000   0.0000000), wk =   0.0069444

     Dense  grid:    16865 G-vectors     FFT dimensions: (  36,  36,  36)

     Smooth grid:     5961 G-vectors     FFT dimensions: (  32,  32,  32)

     Estimated max dynamical RAM per process >      28.55 MB

     Estimated total dynamical RAM >      57.09 MB

     The potential is recalculated from file :
     ./tmp/silicon.save/charge-density

     Starting wfcs are    8 randomized atomic wfcs +   28 random wfcs

     Band Structure Calculation
     Davidson diagonalization with overlap

     ethr =  1.25E-12,  avg # of iterations = 40.8

     total cpu time spent up to now is       11.8 secs

     End of band structure calculation

          k = 0.0000 0.0000 0.0000 (   725 PWs)   bands (ev):

    -5.7550   6.2126   6.2126   6.2126   8.7751   8.7751   8.7751   9.5808
    13.9436  13.9436  14.1793  17.4747  17.4747  17.4747  21.6248  29.2421
    29.2421  29.2421  30.2966  30.2966  31.9668  31.9668  31.9668  35.6148
    35.6148  35.6148  40.7605  40.7605  40.7605  44.5096  44.5096  44.6067
    46.6222  46.6222  48.5412  48.5412

          k =-0.0833 0.0833-0.0833 (   737 PWs)   bands (ev):

    -5.6639   5.3531   6.0685   6.0685   8.8208   8.9869   8.9869  10.2436
    13.6745  13.6745  14.5640  17.1530  18.0409  18.0409  22.2273  28.2894
    28.2894  28.3478  29.9818  29.9818  32.3181  32.3181  32.7194  35.6988
    36.6824  36.6824  39.6431  40.5474  40.5474  43.7309  43.7309  44.9348
    45.6316  45.6316  48.4068  48.4068

          k =-0.1667 0.1667-0.1667 (   748 PWs)   bands (ev):

    -5.3937   3.8296   5.7613   5.7613   8.5648   9.4235   9.4235  11.6692
    13.3081  13.3081  15.3088  16.8799  19.3504  19.3504  23.5756  26.1580
    26.1580  26.8002  30.0131  30.0131  32.6113  32.6113  33.8877  35.9448
    37.3311  38.6575  38.6575  40.0146  40.0146  41.6734  41.6734  44.2640
    44.2640  45.2954  47.3512  47.5492

          k =-0.2500 0.2500-0.2500 (   754 PWs)   bands (ev):

    -4.9550   2.2823   5.4514   5.4514   8.2429   9.7191   9.7191  13.1353
    13.4180  13.4180  15.2167  18.0628  20.8585  20.8585  24.0830  24.0830
    24.2014  26.3080  30.1418  30.1418  32.8273  32.8273  33.9521  35.6142
    36.3304  38.0643  38.0643  39.5427  39.5427  40.5479  40.5479  44.5022
    44.5022  44.6988  45.1578  45.7183

          k =-0.3333 0.3333-0.3333 (   751 PWs)   bands (ev):

    -4.3776   0.8741   5.2104   5.2104   7.9773   9.7205   9.7205  14.0863
    14.2078  14.2078  15.3406  19.8345  20.8257  20.8257  23.0308  23.8976
    23.8976  28.1434  30.1521  30.1521  31.4116  32.9782  32.9782  35.6187
    35.6187  36.0043  36.8020  38.9074  38.9074  40.0558  40.0558  42.0225
    44.2094  44.3529  46.4975  46.4975

          k =-0.4167 0.4167-0.4167 (   760 PWs)   bands (ev):

    -3.7567  -0.2567   5.0617   5.0617   7.8090   9.6080   9.6080  14.0302
    15.4943  15.4943  16.5939  19.0477  19.0477  20.0747  23.5247  25.7932
    25.7932  28.5910  29.5707  29.5707  30.4108  32.8805  32.8805  33.9287
    33.9287  35.6030  37.2393  38.5796  38.5796  39.3864  39.3864  40.3454
    43.1484  43.5084  46.9459  46.9459

          k = 0.5000-0.5000 0.5000 (   754 PWs)   bands (ev):

    -3.4223  -0.7626   5.0118   5.0118   7.7519   9.5535   9.5535  13.9480
    16.7743  16.7743  17.5637  17.5637  17.5747  19.2303  25.5685  26.2071
    27.8453  27.8453  27.9916  27.9916  31.8809  32.6314  32.6314  33.6123
    33.6123  34.5829  37.4314  38.5230  38.5230  39.0700  39.0700  40.0168
    42.7481  43.1221  46.9303  46.9303

          k = 0.0000 0.1667 0.0000 (   733 PWs)   bands (ev):

    -5.6335   5.5189   5.7817   5.7817   8.5011   9.3553   9.3553  10.2203
    13.1787  14.0783  14.6926  17.6855  17.6855  18.0071  22.4771  27.8827
    27.8827  29.0792  29.3991  29.5209  32.3837  32.6918  32.6918  36.5026
    36.5026  36.8765  40.0195  40.0195  40.0426  42.9438  44.2498  44.4893
    45.4788  46.5284  48.2010  48.2010

          k =-0.0833 0.2500-0.0833 (   755 PWs)   bands (ev):

    -5.4224   4.2835   5.4170   5.6085   8.5240   9.4392   9.8944  11.1171
    12.8432  14.0209  15.4203  17.2929  18.4165  19.2392  23.6382  26.0447
    26.3578  28.4416  28.7316  29.4050  32.4503  33.0266  33.7385  36.8236
    37.9411  37.9812  38.7443  39.2465  39.9352  41.2670  43.1503  43.1617
    45.4453  45.7251  46.8500  47.0572

          k =-0.1667 0.3333-0.1667 (   753 PWs)   bands (ev):

    -5.0383   2.7803   5.1035   5.2847   8.6520   9.4285  10.2805  11.6173
    13.6148  14.0803  15.7692  17.7181  19.7598  20.8647  23.8534  24.2837
    25.1532  27.0858  28.8427  29.5793  32.4333  33.2865  34.4008  35.8937
    37.0991  38.2329  38.3986  39.3372  39.7786  40.0368  41.4235  42.7472
    44.6854  45.4668  46.0587  46.2760

          k =-0.2500 0.4167-0.2500 (   758 PWs)   bands (ev):

    -4.5021   1.3427   4.8933   4.9310   8.5089   9.5111  10.3038  12.1877
    14.7390  14.8721  15.5444  19.3003  20.4029  21.6338  22.8044  23.4804
    24.5400  27.9766  29.0041  29.8198  32.1528  32.1987  33.5217  36.0627
    36.3095  36.7372  37.4915  38.0761  38.7512  39.7012  41.0357  43.1004
    44.3624  44.8004  45.0827  45.5973

          k =-0.3333 0.5000-0.3333 (   757 PWs)   bands (ev):

    -3.8761   0.1114   4.6344   4.8034   8.3434   9.4783  10.1082  13.2371
    14.9460  15.9276  16.7026  18.8234  19.4706  21.3613  23.1566  24.3878
    25.6581  28.9783  29.0291  29.8742  30.2950  31.5062  33.6938  34.3734
    34.6216  36.3206  37.0875  37.8714  38.1855  39.3684  40.2934  41.1181
    43.7105  44.6123  45.0081  46.9610

          k = 0.5833-0.4167 0.5833 (   751 PWs)   bands (ev):

    -3.3848  -0.6593   4.4290   4.8344   8.2633   9.4801   9.9082  14.1397
    15.2592  16.7318  17.6423  17.7176  18.5408  20.2136  24.9315  26.5351
    26.5435  27.6280  28.1484  28.5620  31.6389  31.9792  32.2800  33.8558
    34.1818  35.2442  37.0459  37.1762  38.4893  39.2598  39.6808  40.5966
    43.2795  44.0939  45.0601  47.0113

          k = 0.5000-0.3333 0.5000 (   754 PWs)   bands (ev):

    -3.5058  -0.4813   4.3334   4.9777   8.2904   9.5967   9.7970  14.2481
    15.1777  15.7086  17.3889  18.2737  19.3689  20.2114  24.0435  25.7853
    27.1522  27.6105  28.5511  28.9844  31.4278  31.4927  32.9684  33.6825
    34.0774  35.6837  37.0212  37.2962  38.5829  39.4551  39.7074  40.6064
    43.3450  44.1833  45.3702  46.7644

          k = 0.4167-0.2500 0.4167 (   752 PWs)   bands (ev):

    -4.0882   0.4919   4.3606   5.2177   8.4235   9.7647   9.8064  13.7049
    13.7959  15.3416  16.7299  18.8671  20.6759  21.2158  22.8044  23.7287
    25.3350  29.0338  29.2652  29.7723  30.3405  32.1399  33.4293  34.7236
    35.2076  36.2269  37.5341  37.5430  38.7120  39.6444  40.4189  41.6150
    43.8573  44.7286  45.9214  46.6650

          k = 0.3333-0.1667 0.3333 (   752 PWs)   bands (ev):

    -4.6965   1.8075   4.5204   5.5283   8.6493   9.6834   9.9591  12.7366
    12.8837  15.2634  15.6099  18.6375  20.3680  22.0713  22.2831  24.2478
    24.6312  27.2738  29.0901  29.5622  32.6694  32.7989  33.5550  36.0168
    36.2722  37.4521  37.7292  38.3786  39.1939  40.0988  41.0068  43.5867
    44.0616  45.2115  45.2119  46.2115

          k = 0.2500-0.0833 0.2500 (   756 PWs)   bands (ev):

    -5.1855   3.2675   4.8246   5.8583   8.9315   9.3830   9.7459  11.9574
    12.6643  14.1505  15.8210  17.3412  19.0732  20.7241  23.9480  24.4126
    26.3782  26.8361  28.8246  29.4816  32.7219  32.8588  34.7404  36.3152
    36.7413  38.4177  38.7699  39.7740  39.8351  40.4770  41.6280  42.5178
    44.7170  45.6887  46.0032  46.9239

          k = 0.1667-0.0000 0.1667 (   747 PWs)   bands (ev):

    -5.5130   4.6219   5.3474   6.0943   9.0248   9.1459   9.1821  11.0410
    13.0464  13.7923  15.1270  17.3046  17.9288  19.1985  23.0907  26.1977
    27.9118  28.2059  28.9101  29.6336  32.5235  32.6520  33.6391  36.4415
    37.1347  38.3615  38.5099  39.4238  40.6300  42.1269  43.2704  43.7976
    44.9764  45.7389  47.1778  48.1092

          k = 0.0000 0.3333 0.0000 (   753 PWs)   bands (ev):

    -5.2707   4.1737   5.0175   5.0175   7.9172  10.5166  10.5598  10.5598
    12.8330  14.4822  15.9800  18.3057  18.3057  18.8871  24.6220  25.6871
    25.6871  26.8499  28.0893  29.9233  32.7395  33.3324  33.3324  38.0191
    38.0191  38.1885  38.8384  38.8384  39.0762  39.8720  42.4317  43.6548
    45.6170  45.6170  46.6115  46.6325

          k =-0.0833 0.4167-0.0833 (   750 PWs)   bands (ev):

    -4.9434   3.0852   4.6702   4.6827   7.9373  10.1128  10.8979  11.1233
    13.8212  14.7104  16.7383  18.1639  19.1211  20.3096  23.8145  24.2235
    25.9547  26.5781  27.5983  29.6885  32.4029  33.5172  34.0773  35.9885
    36.9241  37.5974  38.4758  39.0955  39.9213  40.7569  41.7800  42.4460
    44.4225  44.6286  46.3663  46.9226

          k =-0.1667 0.5000-0.1667 (   750 PWs)   bands (ev):

    -4.4551   1.7732   4.2174   4.4637   8.1784  10.2816  10.7404  11.2909
    15.2937  15.3565  16.6488  19.1109  19.9518  21.5049  22.2622  23.2574
    26.0525  26.7931  27.9509  29.6610  31.7466  32.5866  33.5770  35.8012
    36.0581  36.2834  37.9674  38.5173  39.3097  40.2185  41.6591  43.0456
    43.7321  44.0272  45.0362  46.5438

          k =-0.2500 0.5833-0.2500 (   754 PWs)   bands (ev):

    -3.8469   0.5373   3.7778   4.3797   8.2240  10.4741  11.1104  11.2683
    16.1208  16.4113  17.0618  18.6989  19.4730  21.7044  23.2828  24.3312
    25.1662  27.0603  28.3824  29.8062  30.7086  31.4121  33.4070  34.3279
    35.6764  36.0833  36.6902  37.2985  38.8980  40.1126  41.0737  42.1866
    43.3983  43.4632  45.5704  46.1263

          k = 0.6667-0.3333 0.6667 (   752 PWs)   bands (ev):

    -3.2629  -0.3979   3.4328   4.4335   8.2556  10.3317  10.8371  12.6388
    15.6445  16.6988  18.0011  18.0527  18.9039  22.3447  24.1929  25.2261
    26.4038  26.7916  27.2952  28.9540  30.2527  32.4998  33.1409  33.4552
    33.8456  35.7299  36.4474  36.6098  38.2799  39.9856  40.8518  41.5158
    43.1067  43.2434  45.4497  46.6586

          k = 0.5833-0.2500 0.5833 (   749 PWs)   bands (ev):

    -3.1483  -0.5579   3.2186   4.6177   8.4006  10.2844  10.6103  14.1954
    14.7757  15.0075  17.3930  19.7535  20.3574  20.8232  23.9913  26.1486
    26.4844  26.7152  27.9782  28.0328  31.1170  32.0879  32.7780  33.2929
    33.6274  34.9776  35.8659  37.3398  38.5967  39.8301  40.8805  41.5268
    43.0090  43.3344  45.2914  46.7130

          k = 0.5000-0.1667 0.5000 (   757 PWs)   bands (ev):

    -3.6482   0.2018   3.1618   4.9131   8.6659  10.3390  10.4439  13.5109
    13.5507  15.6272  17.6905  19.0236  21.1528  21.6100  22.5373  24.1570
    26.1328  28.1187  28.3000  29.1936  31.0046  31.1978  33.4469  33.8460
    34.5857  34.6675  36.0290  38.3176  39.5303  39.9676  40.7983  41.9463
    43.1762  43.8489  45.3182  46.7180

          k = 0.4167-0.0833 0.4167 (   748 PWs)   bands (ev):

    -4.2729   1.3499   3.3062   5.2819   8.9979  10.2152  10.3943  12.3503
    12.5765  16.5173  17.3172  18.4116  20.0403  21.6281  23.0021  24.1838
    25.5209  27.3528  28.2426  29.1321  31.5962  32.4324  33.6048  34.8757
    35.2057  36.4021  37.1151  38.5962  39.9997  40.2105  40.7658  43.0594
    43.9859  44.5272  44.6475  45.5781

          k = 0.3333 0.0000 0.3333 (   748 PWs)   bands (ev):

    -4.8052   2.4928   3.7970   5.6466   9.2542   9.7713  10.0640  11.8823
    12.3273  15.6105  16.7074  17.7272  19.6014  21.8372  22.2399  24.9327
    26.6710  26.8876  27.4272  28.6754  32.7038  32.9344  34.6953  35.4576
    36.8194  37.3416  37.6547  40.0240  40.2855  40.3308  40.6023  41.6118
    44.8485  45.1839  45.6301  46.2971

          k = 0.0000 0.5000 0.0000 (   729 PWs)   bands (ev):

    -4.6726   2.6939   4.3198   4.3198   7.3429   9.3485  11.9731  11.9731
    14.2818  15.1543  17.6563  19.2332  19.2332  19.9488  23.6394  23.6394
    24.5548  26.5647  27.1418  31.0814  32.3861  33.4701  33.4701  35.7381
    35.7381  35.7762  36.5397  40.7504  41.4091  41.5413  41.5413  43.0020
    43.6579  43.6579  47.0923  47.2208

          k =-0.0833 0.5833-0.0833 (   743 PWs)   bands (ev):

    -4.2358   1.7829   3.8541   4.0730   7.4269   8.9942  12.2622  12.4555
    15.5751  15.7211  18.1003  19.5359  19.7140  21.0622  22.2220  22.8962
    24.4470  26.1762  28.0083  31.3199  31.4527  32.7235  32.9257  34.4907
    35.1976  35.3157  36.1787  40.1862  40.4316  41.8345  42.6135  43.1191
    43.1317  43.3764  46.3774  46.7940

          k =-0.1667 0.6667-0.1667 (   752 PWs)   bands (ev):

    -3.6602   0.7529   3.2215   3.9657   7.6453   9.4661  12.1289  12.4133
    16.8143  17.2100  17.5745  18.6706  19.9656  21.3291  22.6057  24.1960
    24.8385  25.8998  27.8900  29.2387  31.2351  32.0661  32.6054  33.1088
    35.2382  35.3703  37.0756  38.2337  38.9753  40.9775  42.5612  43.0308
    43.1590  43.4017  45.4779  46.2058

          k = 0.7500-0.2500 0.7500 (   748 PWs)   bands (ev):

    -3.0357  -0.1743   2.6746   4.0044   7.7335  10.6649  11.9614  12.1357
    16.4288  16.7607  18.3811  18.9283  19.2596  23.0571  23.9380  24.8236
    25.5872  25.7994  26.1439  29.1465  29.8979  31.3839  31.7793  34.0241
    35.3395  35.4646  35.6129  37.3923  38.2202  40.4545  41.7528  42.2729
    43.3219  43.3705  45.0347  46.9211

          k = 0.6667-0.1667 0.6667 (   743 PWs)   bands (ev):

    -2.7115  -0.5894   2.3112   4.1846   7.9131  11.6747  11.8382  12.3845
    14.9838  14.9962  18.8056  20.1207  20.6964  23.1155  23.7113  24.5405
    25.1212  26.3520  27.2702  28.1491  31.0898  31.2534  31.5091  32.9724
    34.3421  35.4966  35.5708  36.3917  38.7658  40.2166  41.8654  42.0353
    43.2381  43.5659  44.6102  46.7002

          k = 0.5833-0.0833 0.5833 (   749 PWs)   bands (ev):

    -3.0878  -0.0948   2.1915   4.4898   8.2377  11.5373  11.6575  13.4004
    13.5173  14.1480  18.8744  21.1184  21.3162  21.9602  22.5572  24.5788
    24.8288  26.7022  28.4728  29.1713  30.3688  31.8073  32.0100  33.2772
    33.9198  34.4247  35.5746  36.5117  40.2364  40.3321  42.0233  42.5506
    43.3029  43.6256  44.3575  45.7334

          k = 0.5000 0.0000 0.5000 (   754 PWs)   bands (ev):

    -3.7103   0.7288   2.4557   4.8826   8.6638  11.0034  11.3513  12.3628
    12.6691  15.8536  18.8434  19.4143  19.6900  22.8936  23.2501  23.6569
    24.9078  27.4190  27.9272  30.1104  31.0308  31.4514  32.9829  33.3312
    33.9375  35.6204  36.4585  37.4082  40.1314  40.2975  42.3109  43.1699
    43.8623  44.1642  44.7694  44.8440

          k = 0.0000 0.6667 0.0000 (   749 PWs)   bands (ev):

    -3.8500   1.1990   3.7915   3.7915   6.9397   8.2062  13.4805  13.4805
    16.0606  16.0917  19.3124  19.6944  19.6944  21.3416  22.4030  22.6521
    22.6521  25.3214  29.0686  30.7932  31.6644  31.6644  32.8597  33.8982
    33.9083  35.1145  35.1145  41.2869  41.4455  41.8980  41.8980  42.4413
    44.4841  44.4841  46.2324  46.5488

          k =-0.0833 0.7500-0.0833 (   752 PWs)   bands (ev):

    -3.3150   0.4124   3.3052   3.6487   7.1023   8.0760  13.8059  13.8505
    17.0048  17.3579  18.4633  18.7317  20.6644  21.3837  21.8459  23.4499
    23.7793  25.3642  28.7599  29.3090  30.4049  30.7526  31.7180  33.1516
    34.6721  35.2949  36.5502  39.7540  40.4305  41.2668  41.9379  42.7134
    44.7158  45.2246  45.8075  46.5377

          k = 0.8333-0.1667 0.8333 (   749 PWs)   bands (ev):

    -2.6855  -0.3566   2.5764   3.6549   7.2764   8.9321  13.6682  13.6986
    16.8443  16.9242  18.5397  19.1157  20.9339  22.0487  22.1607  24.8782
    24.9919  25.7026  26.8185  28.9056  29.4345  30.0337  30.5094  32.8634
    35.4993  35.5713  37.8976  38.2638  38.5126  40.7945  41.6433  42.7022
    43.3733  45.0076  45.5270  46.6887

          k = 0.7500-0.0833 0.7500 (   744 PWs)   bands (ev):

    -2.2160  -0.8483   1.9970   3.8088   7.4535  10.3801  13.3159  13.5315
    15.1426  15.1582  20.3406  20.6388  20.8535  22.4429  23.2074  23.5117
    25.4758  26.2170  26.7826  28.9315  29.0497  29.7061  30.6473  33.0152
    35.2270  35.5716  35.6207  37.3220  40.1685  40.6635  41.3119  41.5450
    43.4599  44.3023  45.5473  45.6526

          k = 0.6667-0.0000 0.6667 (   740 PWs)   bands (ev):

    -2.4891  -0.5620   1.7950   4.0977   7.7808  12.0200  12.6921  13.2950
    13.6488  13.8914  20.5950  21.1778  21.9203  21.9348  22.8378  23.7813
    24.6137  26.1549  28.4152  28.7919  29.1519  30.2056  32.8107  33.0307
    33.6756  35.1007  35.4634  35.5981  40.5228  41.1517  41.4167  42.1857
    43.2726  43.9593  44.7304  45.2737

          k = 0.0000 0.8333 0.0000 (   749 PWs)   bands (ev):

    -2.8200  -0.2531   3.4661   3.4661   6.7846   7.3895  15.0434  15.0434
    17.2924  17.7876  18.4985  18.4985  20.0487  20.4592  23.1238  23.9280
    23.9280  25.1413  28.4612  28.8864  28.8864  29.8949  30.6468  32.6766
    35.4656  35.4656  37.0141  40.8757  40.8757  41.5587  41.6480  42.0363
    45.1944  46.1275  46.1275  46.2808

          k = 0.9167-0.0833 0.9167 (   749 PWs)   bands (ev):

    -2.2061  -0.9415   3.0340   3.4324   6.9860   7.5557  15.2889  15.3899
    17.0867  17.1301  18.5091  19.0707  20.1892  20.4406  23.2532  25.1340
    25.1912  25.6058  27.0321  27.6803  28.3014  29.2673  30.4693  31.7696
    35.6139  36.2553  38.4333  39.7447  40.2646  40.6917  41.6649  42.3789
    44.7225  45.2948  45.5239  45.8062

          k = 0.8333 0.0000 0.8333 (   744 PWs)   bands (ev):

    -1.7497  -1.3460   2.3625   3.5496   7.1460   8.7579  14.7403  15.2726
    15.3484  15.6744  20.2222  20.2641  20.4846  21.4927  22.9919  23.4632
    25.9948  26.8161  27.0167  27.5170  28.3226  29.4549  30.1759  31.2474
    35.6629  36.9840  37.3997  37.7733  40.7316  40.8223  41.2675  42.4166
    42.6468  44.7599  45.1080  46.5716

          k = 0.0000-1.0000 0.0000 (   740 PWs)   bands (ev):

    -1.6087  -1.6087   3.3565   3.3565   6.9230   6.9230  16.3214  16.3214
    17.2019  17.2019  18.7510  18.7510  19.2704  19.2704  25.0520  25.0520
    25.9627  25.9627  26.4547  26.4547  27.7616  27.7616  31.5730  31.5730
    35.6651  35.6651  40.4548  40.4548  40.4720  40.4720  41.7892  41.7892
    44.5974  44.5974  46.0050  46.0050

          k =-0.1667 0.3333 0.0000 (   752 PWs)   bands (ev):

    -5.1536   3.4838   4.5761   5.5053   8.5510   9.7619  10.3711  11.1263
    13.0832  14.3993  16.1953  17.6397  18.6558  20.4474  23.9446  24.7788
    25.9789  27.3891  28.6467  28.7188  32.1307  33.6138  34.5209  36.4930
    37.6669  37.6758  39.1059  39.5404  39.6013  40.1665  41.9090  42.2565
    45.1256  45.1309  45.9965  46.8710

          k =-0.2500 0.4167-0.0833 (   756 PWs)   bands (ev):

    -4.7170   2.2413   4.0435   5.2296   8.8329   9.7294  10.7785  11.1127
    13.5480  15.5368  16.4985  18.2324  19.8563  21.8809  22.0232  24.4208
    25.7632  27.2194  28.0378  29.0281  31.9414  33.1372  34.3256  35.6846
    36.5397  37.3297  38.0537  39.2918  39.4390  40.1031  41.1113  42.2993
    43.9608  45.3698  45.6726  46.1681

          k =-0.3333 0.5000-0.1667 (   751 PWs)   bands (ev):

    -4.1414   0.9382   3.7742   4.9016   8.8750   9.6057  10.8363  11.7630
    14.4210  16.0910  17.0691  18.7239  20.3418  21.6107  22.5482  24.1796
    25.1066  27.6828  28.6950  29.9062  30.8540  31.5636  33.6717  34.6597
    35.9723  36.3113  37.4526  37.8145  38.8479  39.9733  40.6921  42.7907
    43.2028  44.7439  45.0930  46.2367

          k = 0.5833-0.4167 0.7500 (   752 PWs)   bands (ev):

    -3.5192  -0.1527   3.6470   4.6545   8.8196   9.4159  10.7547  12.9795
    15.2905  15.8588  17.4886  18.6658  19.5956  21.8621  23.2723  24.7990
    26.4354  27.7075  28.2948  29.0660  30.6040  31.6440  33.4165  33.7261
    33.9388  35.7402  36.8577  37.4332  38.4066  39.8398  40.2666  41.4751
    42.8179  44.5737  45.5987  46.0088

          k = 0.5000-0.3333 0.6667 (   748 PWs)   bands (ev):

    -3.1804  -0.6516   3.6116   4.5626   8.7984   9.3305  10.7093  14.2915
    14.4833  16.1262  17.7276  18.0954  20.2288  20.6497  25.1842  25.4050
    27.1042  27.1094  27.1940  28.4471  31.5038  31.5437  32.5054  33.4706
    34.0365  35.5049  36.4816  36.7850  38.2484  39.6683  40.1799  41.3850
    42.6576  44.4631  45.3277  45.9576

          k =-0.1667 0.5000 0.0000 (   748 PWs)   bands (ev):

    -4.5621   2.2902   3.8798   4.5834   8.0036   9.7442  11.0345  11.8531
    14.3942  15.6699  17.4733  18.4816  19.7388  21.3290  22.0322  23.9814
    25.4042  27.0066  27.3226  30.0735  31.7432  32.8319  34.1535  35.2968
    35.5367  37.1499  37.2295  39.0741  40.6418  41.2744  41.6417  41.8780
    43.1736  44.7813  46.3492  47.0589

          k =-0.2500 0.5833-0.0833 (   750 PWs)   bands (ev):

    -4.0292   1.2387   3.3423   4.2943   8.3370   9.9636  10.7779  12.2395
    15.0865  17.2025  17.2909  18.8552  20.1999  21.2772  22.0714  24.2693
    25.1971  26.6273  27.7559  30.5587  30.8315  31.5092  32.8919  34.3431
    35.4294  36.6715  37.4625  38.3276  38.8929  40.1855  41.7852  42.2632
    43.4570  44.6428  45.2317  46.9907

          k = 0.6667-0.3333 0.8333 (   750 PWs)   bands (ev):

    -3.4033   0.1829   2.9857   4.0831   8.4585  10.4265  11.0273  12.2213
    16.0714  16.2916  18.0489  19.0218  19.6553  21.9508  23.7957  24.5982
    25.1744  26.7838  27.5326  29.0269  30.1370  31.8218  32.6002  33.4389
    35.1168  35.8199  36.5608  37.5780  38.5478  39.4144  41.5409  42.0877
    42.4915  44.4601  45.8914  46.9298

          k = 0.5833-0.2500 0.7500 (   746 PWs)   bands (ev):

    -2.9059  -0.5245   2.7399   4.0650   8.5867  10.1524  12.1133  12.4970
    14.4978  16.7723  18.0229  18.6743  20.7619  22.7524  24.0908  24.9529
    25.6823  26.0558  27.7737  28.1286  30.5780  31.3972  32.4928  32.8180
    34.3089  35.7136  36.2467  37.3005  37.9393  38.9649  41.2010  41.7989
    42.6596  44.3820  46.0949  46.8332

          k = 0.5000-0.1667 0.6667 (   748 PWs)   bands (ev):

    -3.0418  -0.3370   2.6213   4.2380   8.8365   9.9628  12.0298  12.8834
    14.2041  15.5357  18.1234  19.9159  21.0700  22.2015  22.9961  25.0273
    25.6362  27.0268  27.4908  28.7612  30.4594  31.6025  32.4939  33.1264
    33.9069  34.7509  36.5460  37.4221  38.6582  39.1320  41.1270  41.9668
    42.6987  44.5420  45.8512  46.7694

          k = 0.4167-0.0833 0.5833 (   753 PWs)   bands (ev):

    -3.6325   0.5412   2.6950   4.5555   9.1958   9.8207  11.5090  11.9846
    14.2334  15.8847  18.4188  19.2767  20.4789  21.6782  23.1985  24.2907
    25.1463  27.4963  27.9075  29.4442  30.8998  31.5964  32.3047  33.4904
    34.5560  35.9186  36.7652  38.0656  38.7994  39.7174  41.4160  42.4935
    43.1481  44.8594  45.0747  46.4541

          k = 0.3333 0.0000 0.5000 (   756 PWs)   bands (ev):

    -4.2355   1.5216   3.1102   4.9380   9.4270   9.5749  10.8899  11.5537
    13.5175  17.0394  17.3811  18.3926  19.9277  21.4410  22.6244  24.8010
    25.5001  26.5446  28.0418  29.7042  31.4284  31.7053  33.7290  34.4010
    35.4834  36.8937  37.7599  38.8755  39.3371  39.3979  41.8772  42.0906
    43.2020  45.1770  45.6883  46.0014

          k =-0.1667 0.6667-0.0000 (   754 PWs)   bands (ev):

    -3.7513   1.0235   3.3695   3.7977   7.6059   8.6937  12.2802  13.4293
    15.8510  17.2974  18.0099  19.4911  20.2332  21.0325  21.9815  23.5185
    24.0064  26.0056  28.3514  29.9568  31.3103  31.3828  32.9616  33.4540
    34.3355  35.4312  36.7418  39.4654  40.4710  40.5549  41.2585  43.5794
    43.9543  44.4191  46.5187  46.9485

          k = 0.7500-0.2500 0.9167 (   750 PWs)   bands (ev):

    -3.1452   0.1873   2.7812   3.5803   7.9405   9.2241  11.9795  13.7992
    16.4551  16.7924  18.7497  19.1403  20.4521  21.1826  23.2833  23.4670
    25.7654  26.0380  27.4497  28.4274  29.9442  30.4882  32.1986  34.0777
    34.3691  35.3702  37.7197  38.1679  38.7404  39.6679  40.8359  43.2077
    44.1948  44.5253  46.3689  46.8489

          k = 0.6667-0.1667 0.8333 (   746 PWs)   bands (ev):

    -2.5553  -0.5283   2.2596   3.5883   8.0946  10.5190  11.6842  13.7322
    14.6711  17.1211  18.4409  20.0153  20.9465  22.4597  23.9534  24.7495
    24.9548  25.4748  27.0336  28.7860  29.4481  29.8813  31.3621  34.1447
    34.5895  35.3372  36.0898  37.8039  38.6498  39.2973  40.5590  42.3313
    44.2402  44.7108  46.1386  46.5533

          k = 0.5833-0.0833 0.7500 (   743 PWs)   bands (ev):

    -2.4841  -0.5994   1.9705   3.7872   8.3516  11.2746  12.2702  12.9522
    13.6310  15.5882  19.7760  20.2102  22.1731  22.4505  23.4119  23.6273
    25.4227  25.8041  27.5756  28.4295  29.2823  31.2734  32.3118  32.5281
    34.0441  35.0123  36.0297  36.7671  38.7638  39.7585  40.6054  42.8328
    44.3210  44.5428  45.5005  45.6666

          k = 0.5000 0.0000 0.6667 (   743 PWs)   bands (ev):

    -3.0223  -0.0084   2.0573   4.1328   8.7438  10.8608  11.7220  13.0583
    14.1710  14.4540  19.8094  20.4122  21.1523  21.7368  23.4001  24.1718
    24.7319  26.7071  28.1757  29.1171  30.0788  30.6617  32.4288  33.6901
    33.8034  34.9853  35.9531  36.7548  38.7157  40.3561  40.8590  43.8187
    43.9823  44.3446  44.7588  45.3843

          k = 0.8333-0.1667 1.0000 (   745 PWs)   bands (ev):

    -2.7425  -0.2896   3.0854   3.2820   7.4352   7.9481  13.6580  15.0389
    16.8148  17.3478  18.5100  19.1546  20.2832  21.9379  22.0201  23.5562
    25.5407  25.6382  27.4398  28.2500  29.6674  30.0537  30.7553  32.0787
    35.7385  35.8457  37.5107  39.2968  40.1991  40.2111  40.3924  43.6589
    44.7494  45.1836  46.3101  46.6562

          k = 0.7500-0.0833 0.9167 (   745 PWs)   bands (ev):

    -2.1130  -0.9331   2.4560   3.2381   7.7275   8.8555  13.3378  14.8212
    15.4959  17.1903  18.6568  20.3413  21.0209  22.0928  22.6302  24.3159
    24.8281  26.5576  27.2976  27.5806  29.3719  29.7934  29.8376  31.6106
    35.7474  36.7636  37.4919  37.8745  38.9360  39.7015  41.1436  43.0125
    43.8769  45.2895  45.7441  46.6609

          k = 0.6667 0.0000 0.8333 (   745 PWs)   bands (ev):

    -1.9579  -1.0468   1.9574   3.4354   7.9652  10.3869  12.8770  13.2697
    15.0313  15.9145  19.8752  21.0058  21.6697  22.5797  22.6604  23.6394
    25.5778  25.8201  27.0006  28.2896  28.8091  29.9120  31.4943  32.1094
    34.8605  35.0630  36.9959  37.3929  39.1729  39.2292  41.5436  43.0394
    43.0479  45.3378  45.3517  46.0534

          k =-0.1667-1.0000-0.0000 (   754 PWs)   bands (ev):

    -1.5706  -1.5706   3.0499   3.0499   7.5374   7.5374  15.1299  15.1299
    16.8201  16.8201  19.0230  19.0230  20.6802  20.6802  24.1057  24.1057
    25.5977  25.5977  27.4550  27.4550  28.6220  28.6220  30.6672  30.6672
    36.3110  36.3110  38.7544  38.7544  40.1063  40.1063  41.9225  41.9225
    45.0186  45.0186  45.5656  45.5656

          k = 0.6667-0.3333 1.0000 (   748 PWs)   bands (ev):

    -3.4646   0.5653   2.6390   3.9146   9.0678   9.9311  10.4504  13.2835
    15.2230  16.1273  19.2534  19.4380  20.1491  21.1263  22.8348  24.0606
    25.7597  27.1352  27.2727  28.9182  30.3315  30.7496  32.8975  33.7181
    34.5095  36.3007  37.5432  37.8468  38.5665  38.9999  40.3557  43.0939
    44.1876  45.0854  45.6687  46.3277

          k = 0.5833-0.2500 0.9167 (   746 PWs)   bands (ev):

    -2.8399  -0.2053   2.2917   3.5771   9.4426   9.9825  10.9716  13.7127
    14.3163  16.1931  19.1333  20.0659  21.2699  21.5761  23.3193  24.7404
    25.3118  26.7297  27.1735  28.5139  29.6223  29.9327  32.4733  33.9999
    34.9562  35.2541  36.1039  37.2103  38.0595  38.9385  40.4316  42.8334
    43.7231  45.5979  46.1799  46.7583

          k = 0.5000-0.1667 0.8333 (   738 PWs)   bands (ev):

    -2.4791  -0.6351   2.1987   3.4475   9.5713   9.7730  12.3191  12.7363
    13.7743  17.3206  18.1813  19.7196  22.4506  23.0775  23.2228  24.1694
    24.7909  26.6962  27.0725  27.9063  29.2772  31.8096  31.9950  32.1771
    34.6187  35.8410  36.4208  37.0892  37.4625  38.7355  40.1352  42.5453
    43.9587  46.0015  46.1066  47.0825

          k = 0.6667-0.1667 1.0000 (   746 PWs)   bands (ev):

    -2.5284  -0.4339   2.4399   3.0590   8.8971   9.3012  11.6005  14.5322
    15.0680  16.9642  19.0108  20.4657  21.0053  21.4885  22.9385  24.2524
    25.7905  26.8385  27.1705  27.2995  29.1885  29.4150  31.5985  33.4562
    35.1134  36.0606  37.2409  37.4542  37.6782  38.8727  40.7334  43.6651
    43.9619  45.5674  46.0977  47.1615

          k = 0.5833-0.0833 0.9167 (   745 PWs)   bands (ev):

    -2.0047  -0.9408   2.1240   2.9046   9.2388  10.5033  11.3260  12.7134
    15.4468  17.3380  18.5674  20.5279  21.5343  23.2114  23.4573  24.4346
    25.0998  25.7270  26.5041  27.4440  28.9634  30.7070  31.5111  33.6048
    34.2154  35.1253  36.4116  37.1624  37.7796  38.6149  41.6088  43.0271
    44.3574  45.1722  45.9084  47.0027

          k = 0.5000 0.0000 0.8333 (   745 PWs)   bands (ev):

    -2.2364  -0.7109   1.9990   3.1300   9.5408  10.6918  11.2162  12.4612
    15.0265  16.4402  19.4859  20.7848  21.1336  22.6207  23.4713  24.9799
    25.1397  25.8853  26.8984  27.0790  29.1197  31.0848  32.0368  33.7443
    33.9345  35.1193  36.1374  36.7047  38.0166  38.2675  41.5145  43.6403
    43.8443  44.8532  45.9950  46.9751

          k =-0.3333-1.0000 0.0000 (   742 PWs)   bands (ev):

    -1.4887  -1.4887   2.5635   2.5635   8.9638   8.9638  12.9814  12.9814
    16.7925  16.7925  19.1783  19.1783  22.7121  22.7121  23.4427  23.4427
    25.0729  25.0729  27.5969  27.5969  29.4859  29.4859  31.0804  31.0804
    36.1459  36.1459  37.0800  37.0800  38.3531  38.3531  43.0908  43.0908
    43.7841  43.7841  46.6781  46.6781

          k =-0.5000-1.0000 0.0000 (   744 PWs)   bands (ev):

    -1.4445  -1.4445   2.3554   2.3554  10.4866  10.4866  11.2182  11.2182
    16.7972  16.7972  19.2605  19.2605  22.6655  22.6655  24.8219  24.8219
    25.1102  25.1102  26.0022  26.0022  29.8836  29.8836  33.6983  33.6983
    33.8933  33.8933  35.7249  35.7249  38.6845  38.6845  43.0700  43.0700
    44.1432  44.1432  46.3066  46.3066

     highest occupied, lowest unoccupied level (ev):     6.2126    6.7846

     Writing all to output data dir ./tmp/silicon.save/ :
     XML data file, pseudopotentials, collected wavefunctions

     init_run     :      0.08s CPU      0.09s WALL (       1 calls)
     electrons    :     10.77s CPU     11.61s WALL (       1 calls)

     Called by init_run:
     wfcinit      :      0.00s CPU      0.00s WALL (       1 calls)
     potinit      :      0.00s CPU      0.01s WALL (       1 calls)
     hinit0       :      0.05s CPU      0.06s WALL (       1 calls)

     Called by electrons:
     c_bands      :     10.76s CPU     11.61s WALL (       1 calls)
     v_of_rho     :      0.00s CPU      0.00s WALL (       1 calls)
     newd         :      0.01s CPU      0.01s WALL (       1 calls)

     Called by c_bands:
     init_us_2    :      0.00s CPU      0.00s WALL (      72 calls)
     cegterg      :     10.45s CPU     11.26s WALL (     172 calls)

     Called by *egterg:
     cdiaghg      :      2.77s CPU      2.96s WALL (    3013 calls)
     h_psi        :      6.58s CPU      6.92s WALL (    3185 calls)
     s_psi        :      0.13s CPU      0.17s WALL (    3185 calls)
     g_psi        :      0.03s CPU      0.03s WALL (    2941 calls)

     Called by h_psi:
     h_psi:calbec :      0.17s CPU      0.23s WALL (    3185 calls)
     vloc_psi     :      6.25s CPU      6.50s WALL (    3185 calls)
     add_vuspsi   :      0.14s CPU      0.17s WALL (    3185 calls)

     General routines
     calbec       :      0.17s CPU      0.23s WALL (    3185 calls)
     fft          :      0.00s CPU      0.00s WALL (      13 calls)
     ffts         :      0.00s CPU      0.00s WALL (       1 calls)
     fftw         :      5.41s CPU      5.63s WALL (  135180 calls)
     interpolate  :      0.00s CPU      0.00s WALL (       1 calls)
     davcio       :      0.00s CPU      0.01s WALL (     144 calls)

     Parallel routines

     PWSCF        :     10.95s CPU     11.88s WALL


   This run was terminated on:  14:15:56   1Nov2025            

=------------------------------------------------------------------------------=
   JOB DONE.
=------------------------------------------------------------------------------=
