
     Program PROJWFC v.7.4.1 starts on  1Nov2025 at 14:16:14 

     This program is part of the open-source Quantum ESPRESSO suite
     for quantum simulation of materials; please cite
         "P. Giannozzi et al., J. Phys.:Condens. Matter 21 395502 (2009);
         "P. Giannozzi et al., J. Phys.:Condens. Matter 29 465901 (2017);
         "P. Giannozzi et al., J. Chem. Phys. 152 154105 (2020);
          URL http://www.quantum-espresso.org", 
     in publications or presentations arising from this work. More details at
     http://www.quantum-espresso.org/quote

     Parallel version (MPI), running on     2 processors

     MPI processes distributed on     1 nodes
     R & G space division:  proc/nbgrp/npool/nimage =       2
     0 MiB available memory on the printing compute node when the environment starts


     Reading xml data from directory:

     ./tmp/silicon.save/

     IMPORTANT: XC functional enforced from input :
     Exchange-correlation= PBE
                           (   1   4   3   4   0   0   0)
     Any further DFT definition will be discarded
     Please, verify this is what you really want


     Parallelization info
     --------------------
     sticks:   dense  smooth     PW     G-vecs:    dense   smooth      PW
     Min         429     216     75                 8432     2980     569
     Max         430     217     76                 8433     2981     570
     Sum         859     433    151                16865     5961    1139

     Using Slab Decomposition


     Gaussian broadening (read from input): ngauss,degauss=   0    0.020000


     Calling projwave .... 
     Subspace diagonalization in iterative solution of the eigenvalue problem:
     a serial algorithm will be used


  Problem Sizes 
  natomwfc =            8
  nbnd     =           36
  nkstot   =           72
  npwx     =          393
  nkb      =           36


     Atomic states used for projection
     (read from pseudopotential files):

     state #   1: atom   1 (Si ), wfc  1 (l=0 m= 1)
     state #   2: atom   1 (Si ), wfc  2 (l=1 m= 1)
     state #   3: atom   1 (Si ), wfc  2 (l=1 m= 2)
     state #   4: atom   1 (Si ), wfc  2 (l=1 m= 3)
     state #   5: atom   2 (Si ), wfc  1 (l=0 m= 1)
     state #   6: atom   2 (Si ), wfc  2 (l=1 m= 1)
     state #   7: atom   2 (Si ), wfc  2 (l=1 m= 2)
     state #   8: atom   2 (Si ), wfc  2 (l=1 m= 3)

 k =   0.0000000000  0.0000000000  0.0000000000
==== e(   1) =    -5.75499 eV ==== 
     psi = 0.498*[#   1]+0.498*[#   5]
    |psi|^2 = 0.996
==== e(   2) =     6.21261 eV ==== 
     psi = 0.160*[#   2]+0.160*[#   3]+0.160*[#   4]+0.160*[#   6]+0.160*[#   7]
          +0.160*[#   8]
    |psi|^2 = 0.961
==== e(   3) =     6.21261 eV ==== 
     psi = 0.160*[#   2]+0.160*[#   3]+0.160*[#   4]+0.160*[#   6]+0.160*[#   7]
          +0.160*[#   8]
    |psi|^2 = 0.961
==== e(   4) =     6.21261 eV ==== 
     psi = 0.160*[#   2]+0.160*[#   3]+0.160*[#   4]+0.160*[#   6]+0.160*[#   7]
          +0.160*[#   8]
    |psi|^2 = 0.961
==== e(   5) =     8.77505 eV ==== 
     psi = 0.161*[#   2]+0.161*[#   3]+0.161*[#   4]+0.161*[#   6]+0.161*[#   7]
          +0.161*[#   8]
    |psi|^2 = 0.965
==== e(   6) =     8.77505 eV ==== 
     psi = 0.161*[#   2]+0.161*[#   3]+0.161*[#   4]+0.161*[#   6]+0.161*[#   7]
          +0.161*[#   8]
    |psi|^2 = 0.965
==== e(   7) =     8.77505 eV ==== 
     psi = 0.161*[#   2]+0.161*[#   3]+0.161*[#   4]+0.161*[#   6]+0.161*[#   7]
          +0.161*[#   8]
    |psi|^2 = 0.965
==== e(   8) =     9.58079 eV ==== 
     psi = 0.494*[#   1]+0.494*[#   5]
    |psi|^2 = 0.988
==== e(   9) =    13.94356 eV ==== 

    |psi|^2 = 0.000
==== e(  10) =    13.94356 eV ==== 

    |psi|^2 = 0.000
==== e(  11) =    14.17928 eV ==== 
     psi = 0.002*[#   1]+0.002*[#   5]
    |psi|^2 = 0.004
==== e(  12) =    17.47468 eV ==== 
     psi = 0.004*[#   2]+0.004*[#   3]+0.004*[#   4]+0.004*[#   6]+0.004*[#   7]
          +0.004*[#   8]
    |psi|^2 = 0.024
==== e(  13) =    17.47468 eV ==== 
     psi = 0.004*[#   2]+0.004*[#   3]+0.004*[#   4]+0.004*[#   6]+0.004*[#   7]
          +0.004*[#   8]
    |psi|^2 = 0.024
==== e(  14) =    17.47468 eV ==== 
     psi = 0.004*[#   2]+0.004*[#   3]+0.004*[#   4]+0.004*[#   6]+0.004*[#   7]
          +0.004*[#   8]
    |psi|^2 = 0.024
==== e(  15) =    21.62480 eV ==== 
     psi = 0.006*[#   1]+0.006*[#   5]
    |psi|^2 = 0.012
==== e(  16) =    29.24206 eV ==== 
     psi = 0.002*[#   2]+0.002*[#   3]+0.002*[#   4]+0.002*[#   6]+0.002*[#   7]
          +0.002*[#   8]
    |psi|^2 = 0.014
==== e(  17) =    29.24206 eV ==== 
     psi = 0.002*[#   2]+0.002*[#   3]+0.002*[#   4]+0.002*[#   6]+0.002*[#   7]
          +0.002*[#   8]
    |psi|^2 = 0.014
==== e(  18) =    29.24206 eV ==== 
     psi = 0.002*[#   2]+0.002*[#   3]+0.002*[#   4]+0.002*[#   6]+0.002*[#   7]
          +0.002*[#   8]
    |psi|^2 = 0.014
==== e(  19) =    30.29661 eV ==== 

    |psi|^2 = 0.000
==== e(  20) =    30.29661 eV ==== 

    |psi|^2 = 0.000
==== e(  21) =    31.96676 eV ==== 
     psi = 0.005*[#   2]+0.005*[#   3]+0.005*[#   4]+0.005*[#   6]+0.005*[#   7]
          +0.005*[#   8]
    |psi|^2 = 0.030
==== e(  22) =    31.96676 eV ==== 
     psi = 0.005*[#   2]+0.005*[#   3]+0.005*[#   4]+0.005*[#   6]+0.005*[#   7]
          +0.005*[#   8]
    |psi|^2 = 0.030
==== e(  23) =    31.96676 eV ==== 
     psi = 0.005*[#   2]+0.005*[#   3]+0.005*[#   4]+0.005*[#   6]+0.005*[#   7]
          +0.005*[#   8]
    |psi|^2 = 0.030
==== e(  24) =    35.61476 eV ==== 

    |psi|^2 = 0.000
==== e(  25) =    35.61476 eV ==== 

    |psi|^2 = 0.000
==== e(  26) =    35.61476 eV ==== 

    |psi|^2 = 0.000
==== e(  27) =    40.76048 eV ==== 

    |psi|^2 = 0.003
==== e(  28) =    40.76048 eV ==== 

    |psi|^2 = 0.003
==== e(  29) =    40.76048 eV ==== 

    |psi|^2 = 0.003
==== e(  30) =    44.50960 eV ==== 

    |psi|^2 = 0.000
==== e(  31) =    44.50960 eV ==== 

    |psi|^2 = 0.000
==== e(  32) =    44.60670 eV ==== 

    |psi|^2 = 0.000
==== e(  33) =    46.62222 eV ==== 

    |psi|^2 = 0.000
==== e(  34) =    46.62222 eV ==== 

    |psi|^2 = 0.000
==== e(  35) =    48.54124 eV ==== 

    |psi|^2 = 0.000
==== e(  36) =    48.54124 eV ==== 

    |psi|^2 = 0.000

 k =  -0.0833333333  0.0833333333 -0.0833333333
==== e(   1) =    -5.66395 eV ==== 
     psi = 0.474*[#   1]+0.474*[#   5]+0.008*[#   2]+0.008*[#   3]+0.008*[#   4]
          +0.008*[#   6]+0.008*[#   7]+0.008*[#   8]
    |psi|^2 = 0.996
==== e(   2) =     5.35311 eV ==== 
     psi = 0.143*[#   2]+0.143*[#   3]+0.143*[#   4]+0.143*[#   6]+0.143*[#   7]
          +0.143*[#   8]+0.058*[#   1]+0.058*[#   5]
    |psi|^2 = 0.972
==== e(   3) =     6.06852 eV ==== 
     psi = 0.161*[#   2]+0.161*[#   3]+0.161*[#   4]+0.161*[#   6]+0.161*[#   7]
          +0.161*[#   8]
    |psi|^2 = 0.966
==== e(   4) =     6.06852 eV ==== 
     psi = 0.161*[#   2]+0.161*[#   3]+0.161*[#   4]+0.161*[#   6]+0.161*[#   7]
          +0.161*[#   8]
    |psi|^2 = 0.966
==== e(   5) =     8.82078 eV ==== 
     psi = 0.128*[#   2]+0.128*[#   3]+0.128*[#   4]+0.128*[#   6]+0.128*[#   7]
          +0.128*[#   8]+0.097*[#   1]+0.097*[#   5]
    |psi|^2 = 0.960
==== e(   6) =     8.98686 eV ==== 
     psi = 0.160*[#   2]+0.160*[#   3]+0.160*[#   4]+0.160*[#   6]+0.160*[#   7]
          +0.160*[#   8]
    |psi|^2 = 0.959
==== e(   7) =     8.98686 eV ==== 
     psi = 0.160*[#   2]+0.160*[#   3]+0.160*[#   4]+0.160*[#   6]+0.160*[#   7]
          +0.160*[#   8]
    |psi|^2 = 0.959
==== e(   8) =    10.24358 eV ==== 
     psi = 0.362*[#   1]+0.362*[#   5]+0.042*[#   2]+0.042*[#   3]+0.042*[#   4]
          +0.042*[#   6]+0.042*[#   7]+0.042*[#   8]
    |psi|^2 = 0.977
==== e(   9) =    13.67450 eV ==== 

    |psi|^2 = 0.002
==== e(  10) =    13.67450 eV ==== 

    |psi|^2 = 0.002
==== e(  11) =    14.56399 eV ==== 
     psi = 0.002*[#   1]+0.002*[#   5]
    |psi|^2 = 0.005
==== e(  12) =    17.15296 eV ==== 
     psi = 0.003*[#   2]+0.003*[#   3]+0.003*[#   4]+0.003*[#   6]+0.003*[#   7]
          +0.003*[#   8]+0.001*[#   1]+0.001*[#   5]
    |psi|^2 = 0.021
==== e(  13) =    18.04091 eV ==== 
     psi = 0.003*[#   2]+0.003*[#   3]+0.003*[#   4]+0.003*[#   6]+0.003*[#   7]
          +0.003*[#   8]
    |psi|^2 = 0.021
==== e(  14) =    18.04091 eV ==== 
     psi = 0.003*[#   2]+0.003*[#   3]+0.003*[#   4]+0.003*[#   6]+0.003*[#   7]
          +0.003*[#   8]
    |psi|^2 = 0.021
==== e(  15) =    22.22727 eV ==== 
     psi = 0.005*[#   1]+0.005*[#   5]
    |psi|^2 = 0.013
==== e(  16) =    28.28941 eV ==== 
     psi = 0.003*[#   2]+0.003*[#   3]+0.003*[#   4]+0.003*[#   6]+0.003*[#   7]
          +0.003*[#   8]
    |psi|^2 = 0.017
==== e(  17) =    28.28941 eV ==== 
     psi = 0.003*[#   2]+0.003*[#   3]+0.003*[#   4]+0.003*[#   6]+0.003*[#   7]
          +0.003*[#   8]
    |psi|^2 = 0.017
==== e(  18) =    28.34784 eV ==== 
     psi = 0.005*[#   2]+0.005*[#   3]+0.005*[#   4]+0.005*[#   6]+0.005*[#   7]
          +0.005*[#   8]
    |psi|^2 = 0.030
==== e(  19) =    29.98176 eV ==== 

    |psi|^2 = 0.004
==== e(  20) =    29.98176 eV ==== 

    |psi|^2 = 0.004
==== e(  21) =    32.31811 eV ==== 
     psi = 0.004*[#   2]+0.004*[#   3]+0.004*[#   4]+0.004*[#   6]+0.004*[#   7]
          +0.004*[#   8]
    |psi|^2 = 0.025
==== e(  22) =    32.31811 eV ==== 
     psi = 0.004*[#   2]+0.004*[#   3]+0.004*[#   4]+0.004*[#   6]+0.004*[#   7]
          +0.004*[#   8]
    |psi|^2 = 0.025
==== e(  23) =    32.71942 eV ==== 
     psi = 0.003*[#   2]+0.003*[#   3]+0.003*[#   4]+0.003*[#   6]+0.003*[#   7]
          +0.003*[#   8]
    |psi|^2 = 0.019
==== e(  24) =    35.69877 eV ==== 

    |psi|^2 = 0.000
==== e(  25) =    36.68237 eV ==== 

    |psi|^2 = 0.001
==== e(  26) =    36.68237 eV ==== 

    |psi|^2 = 0.001
==== e(  27) =    39.64312 eV ==== 

    |psi|^2 = 0.004
==== e(  28) =    40.54739 eV ==== 

    |psi|^2 = 0.003
==== e(  29) =    40.54739 eV ==== 

    |psi|^2 = 0.003
==== e(  30) =    43.73091 eV ==== 

    |psi|^2 = 0.000
==== e(  31) =    43.73091 eV ==== 

    |psi|^2 = 0.000
==== e(  32) =    44.93481 eV ==== 

    |psi|^2 = 0.000
==== e(  33) =    45.63161 eV ==== 

    |psi|^2 = 0.000
==== e(  34) =    45.63161 eV ==== 

    |psi|^2 = 0.000
==== e(  35) =    48.40684 eV ==== 

    |psi|^2 = 0.000
==== e(  36) =    48.40684 eV ==== 

    |psi|^2 = 0.000

 k =  -0.1666666667  0.1666666667 -0.1666666667
==== e(   1) =    -5.39367 eV ==== 
     psi = 0.425*[#   1]+0.425*[#   5]+0.024*[#   2]+0.024*[#   3]+0.024*[#   4]
          +0.024*[#   6]+0.024*[#   7]+0.024*[#   8]
    |psi|^2 = 0.996
==== e(   2) =     3.82956 eV ==== 
     psi = 0.126*[#   2]+0.126*[#   3]+0.126*[#   4]+0.126*[#   6]+0.126*[#   7]
          +0.126*[#   8]+0.112*[#   1]+0.112*[#   5]
    |psi|^2 = 0.981
==== e(   3) =     5.76130 eV ==== 
     psi = 0.162*[#   2]+0.162*[#   3]+0.162*[#   4]+0.162*[#   6]+0.162*[#   7]
          +0.162*[#   8]
    |psi|^2 = 0.974
==== e(   4) =     5.76130 eV ==== 
     psi = 0.162*[#   2]+0.162*[#   3]+0.162*[#   4]+0.162*[#   6]+0.162*[#   7]
          +0.162*[#   8]
    |psi|^2 = 0.974
==== e(   5) =     8.56483 eV ==== 
     psi = 0.202*[#   1]+0.202*[#   5]+0.092*[#   2]+0.092*[#   3]+0.092*[#   4]
          +0.092*[#   6]+0.092*[#   7]+0.092*[#   8]
    |psi|^2 = 0.954
==== e(   6) =     9.42351 eV ==== 
     psi = 0.157*[#   2]+0.157*[#   3]+0.157*[#   4]+0.157*[#   6]+0.157*[#   7]
          +0.157*[#   8]
    |psi|^2 = 0.941
==== e(   7) =     9.42351 eV ==== 
     psi = 0.157*[#   2]+0.157*[#   3]+0.157*[#   4]+0.157*[#   6]+0.157*[#   7]
          +0.157*[#   8]
    |psi|^2 = 0.941
==== e(   8) =    11.66916 eV ==== 
     psi = 0.245*[#   1]+0.245*[#   5]+0.077*[#   2]+0.077*[#   3]+0.077*[#   4]
          +0.077*[#   6]+0.077*[#   7]+0.077*[#   8]
    |psi|^2 = 0.950
==== e(   9) =    13.30812 eV ==== 
     psi = 0.002*[#   2]+0.002*[#   3]+0.002*[#   4]+0.002*[#   6]+0.002*[#   7]
          +0.002*[#   8]
    |psi|^2 = 0.009
==== e(  10) =    13.30812 eV ==== 
     psi = 0.002*[#   2]+0.002*[#   3]+0.002*[#   4]+0.002*[#   6]+0.002*[#   7]
          +0.002*[#   8]
    |psi|^2 = 0.009
==== e(  11) =    15.30880 eV ==== 
     psi = 0.002*[#   1]+0.002*[#   5]+0.002*[#   2]+0.002*[#   3]+0.002*[#   4]
          +0.002*[#   6]+0.002*[#   7]+0.002*[#   8]
    |psi|^2 = 0.014
==== e(  12) =    16.87986 eV ==== 
     psi = 0.006*[#   1]+0.006*[#   5]
    |psi|^2 = 0.013
==== e(  13) =    19.35044 eV ==== 
     psi = 0.003*[#   2]+0.003*[#   3]+0.003*[#   4]+0.003*[#   6]+0.003*[#   7]
          +0.003*[#   8]
    |psi|^2 = 0.017
==== e(  14) =    19.35044 eV ==== 
     psi = 0.003*[#   2]+0.003*[#   3]+0.003*[#   4]+0.003*[#   6]+0.003*[#   7]
          +0.003*[#   8]
    |psi|^2 = 0.017
==== e(  15) =    23.57560 eV ==== 
     psi = 0.003*[#   1]+0.003*[#   5]+0.003*[#   2]+0.003*[#   3]+0.003*[#   4]
          +0.003*[#   6]+0.003*[#   7]+0.003*[#   8]
    |psi|^2 = 0.022
==== e(  16) =    26.15799 eV ==== 
     psi = 0.004*[#   2]+0.004*[#   3]+0.004*[#   4]+0.004*[#   6]+0.004*[#   7]
          +0.004*[#   8]
    |psi|^2 = 0.023
==== e(  17) =    26.15799 eV ==== 
     psi = 0.004*[#   2]+0.004*[#   3]+0.004*[#   4]+0.004*[#   6]+0.004*[#   7]
          +0.004*[#   8]
    |psi|^2 = 0.023
==== e(  18) =    26.80016 eV ==== 
     psi = 0.007*[#   2]+0.007*[#   3]+0.007*[#   4]+0.007*[#   6]+0.007*[#   7]
          +0.007*[#   8]+0.003*[#   1]+0.003*[#   5]
    |psi|^2 = 0.049
==== e(  19) =    30.01305 eV ==== 

    |psi|^2 = 0.005
==== e(  20) =    30.01305 eV ==== 

    |psi|^2 = 0.005
==== e(  21) =    32.61131 eV ==== 
     psi = 0.004*[#   2]+0.004*[#   3]+0.004*[#   4]+0.004*[#   6]+0.004*[#   7]
          +0.004*[#   8]
    |psi|^2 = 0.025
==== e(  22) =    32.61131 eV ==== 
     psi = 0.004*[#   2]+0.004*[#   3]+0.004*[#   4]+0.004*[#   6]+0.004*[#   7]
          +0.004*[#   8]
    |psi|^2 = 0.025
==== e(  23) =    33.88765 eV ==== 
     psi = 0.002*[#   2]+0.002*[#   3]+0.002*[#   4]+0.002*[#   6]+0.002*[#   7]
          +0.002*[#   8]+0.001*[#   1]+0.001*[#   5]
    |psi|^2 = 0.013
==== e(  24) =    35.94477 eV ==== 

    |psi|^2 = 0.000
==== e(  25) =    37.33113 eV ==== 

    |psi|^2 = 0.005
==== e(  26) =    38.65752 eV ==== 

    |psi|^2 = 0.001
==== e(  27) =    38.65752 eV ==== 

    |psi|^2 = 0.001
==== e(  28) =    40.01460 eV ==== 

    |psi|^2 = 0.003
==== e(  29) =    40.01460 eV ==== 

    |psi|^2 = 0.003
==== e(  30) =    41.67336 eV ==== 

    |psi|^2 = 0.001
==== e(  31) =    41.67336 eV ==== 

    |psi|^2 = 0.001
==== e(  32) =    44.26396 eV ==== 

    |psi|^2 = 0.001
==== e(  33) =    44.26396 eV ==== 

    |psi|^2 = 0.001
==== e(  34) =    45.29536 eV ==== 

    |psi|^2 = 0.000
==== e(  35) =    47.35120 eV ==== 

    |psi|^2 = 0.000
==== e(  36) =    47.54919 eV ==== 

    |psi|^2 = 0.000

 k =  -0.2500000000  0.2500000000 -0.2500000000
==== e(   1) =    -4.95498 eV ==== 
     psi = 0.383*[#   1]+0.383*[#   5]+0.038*[#   2]+0.038*[#   3]+0.038*[#   4]
          +0.038*[#   6]+0.038*[#   7]+0.038*[#   8]
    |psi|^2 = 0.996
==== e(   2) =     2.28230 eV ==== 
     psi = 0.141*[#   1]+0.141*[#   5]+0.117*[#   2]+0.117*[#   3]+0.117*[#   4]
          +0.117*[#   6]+0.117*[#   7]+0.117*[#   8]
    |psi|^2 = 0.986
==== e(   3) =     5.45136 eV ==== 
     psi = 0.163*[#   2]+0.163*[#   3]+0.163*[#   4]+0.163*[#   6]+0.163*[#   7]
          +0.163*[#   8]
    |psi|^2 = 0.980
==== e(   4) =     5.45136 eV ==== 
     psi = 0.163*[#   2]+0.163*[#   3]+0.163*[#   4]+0.163*[#   6]+0.163*[#   7]
          +0.163*[#   8]
    |psi|^2 = 0.980
==== e(   5) =     8.24291 eV ==== 
     psi = 0.264*[#   1]+0.264*[#   5]+0.069*[#   2]+0.069*[#   3]+0.069*[#   4]
          +0.069*[#   6]+0.069*[#   7]+0.069*[#   8]
    |psi|^2 = 0.944
==== e(   6) =     9.71914 eV ==== 
     psi = 0.148*[#   2]+0.148*[#   3]+0.148*[#   4]+0.148*[#   6]+0.148*[#   7]
          +0.148*[#   8]
    |psi|^2 = 0.885
==== e(   7) =     9.71914 eV ==== 
     psi = 0.148*[#   2]+0.148*[#   3]+0.148*[#   4]+0.148*[#   6]+0.148*[#   7]
          +0.148*[#   8]
    |psi|^2 = 0.885
==== e(   8) =    13.13527 eV ==== 
     psi = 0.179*[#   1]+0.179*[#   5]+0.088*[#   2]+0.088*[#   3]+0.088*[#   4]
          +0.088*[#   6]+0.088*[#   7]+0.088*[#   8]
    |psi|^2 = 0.888
==== e(   9) =    13.41799 eV ==== 
     psi = 0.008*[#   2]+0.008*[#   3]+0.008*[#   4]+0.008*[#   6]+0.008*[#   7]
          +0.008*[#   8]
    |psi|^2 = 0.046
==== e(  10) =    13.41799 eV ==== 
     psi = 0.008*[#   2]+0.008*[#   3]+0.008*[#   4]+0.008*[#   6]+0.008*[#   7]
          +0.008*[#   8]
    |psi|^2 = 0.046
==== e(  11) =    15.21667 eV ==== 
     psi = 0.008*[#   1]+0.008*[#   5]
    |psi|^2 = 0.018
==== e(  12) =    18.06282 eV ==== 
     psi = 0.011*[#   1]+0.011*[#   5]+0.002*[#   2]+0.002*[#   3]+0.002*[#   4]
          +0.002*[#   6]+0.002*[#   7]+0.002*[#   8]
    |psi|^2 = 0.036
==== e(  13) =    20.85852 eV ==== 
     psi = 0.004*[#   2]+0.004*[#   3]+0.004*[#   4]+0.004*[#   6]+0.004*[#   7]
          +0.004*[#   8]
    |psi|^2 = 0.023
==== e(  14) =    20.85852 eV ==== 
     psi = 0.004*[#   2]+0.004*[#   3]+0.004*[#   4]+0.004*[#   6]+0.004*[#   7]
          +0.004*[#   8]
    |psi|^2 = 0.023
==== e(  15) =    24.08303 eV ==== 
     psi = 0.004*[#   2]+0.004*[#   3]+0.004*[#   4]+0.004*[#   6]+0.004*[#   7]
          +0.004*[#   8]
    |psi|^2 = 0.025
==== e(  16) =    24.08303 eV ==== 
     psi = 0.004*[#   2]+0.004*[#   3]+0.004*[#   4]+0.004*[#   6]+0.004*[#   7]
          +0.004*[#   8]
    |psi|^2 = 0.025
==== e(  17) =    24.20139 eV ==== 
     psi = 0.014*[#   2]+0.014*[#   3]+0.014*[#   4]+0.014*[#   6]+0.014*[#   7]
          +0.014*[#   8]+0.006*[#   1]+0.006*[#   5]
    |psi|^2 = 0.098
==== e(  18) =    26.30799 eV ==== 
     psi = 0.003*[#   1]+0.003*[#   5]+0.001*[#   2]+0.001*[#   3]+0.001*[#   4]
          +0.001*[#   6]+0.001*[#   7]+0.001*[#   8]
    |psi|^2 = 0.014
==== e(  19) =    30.14183 eV ==== 

    |psi|^2 = 0.005
==== e(  20) =    30.14183 eV ==== 

    |psi|^2 = 0.005
==== e(  21) =    32.82728 eV ==== 
     psi = 0.005*[#   2]+0.005*[#   3]+0.005*[#   4]+0.005*[#   6]+0.005*[#   7]
          +0.005*[#   8]
    |psi|^2 = 0.028
==== e(  22) =    32.82728 eV ==== 
     psi = 0.005*[#   2]+0.005*[#   3]+0.005*[#   4]+0.005*[#   6]+0.005*[#   7]
          +0.005*[#   8]
    |psi|^2 = 0.028
==== e(  23) =    33.95214 eV ==== 
     psi = 0.003*[#   1]+0.003*[#   5]+0.002*[#   2]+0.002*[#   3]+0.002*[#   4]
          +0.002*[#   6]+0.002*[#   7]+0.002*[#   8]
    |psi|^2 = 0.018
==== e(  24) =    35.61417 eV ==== 

    |psi|^2 = 0.001
==== e(  25) =    36.33042 eV ==== 

    |psi|^2 = 0.000
==== e(  26) =    38.06426 eV ==== 

    |psi|^2 = 0.001
==== e(  27) =    38.06426 eV ==== 

    |psi|^2 = 0.001
==== e(  28) =    39.54268 eV ==== 

    |psi|^2 = 0.004
==== e(  29) =    39.54268 eV ==== 

    |psi|^2 = 0.004
==== e(  30) =    40.54790 eV ==== 

    |psi|^2 = 0.000
==== e(  31) =    40.54790 eV ==== 

    |psi|^2 = 0.000
==== e(  32) =    44.50216 eV ==== 

    |psi|^2 = 0.001
==== e(  33) =    44.50216 eV ==== 

    |psi|^2 = 0.001
==== e(  34) =    44.69882 eV ==== 

    |psi|^2 = 0.000
==== e(  35) =    45.15779 eV ==== 

    |psi|^2 = 0.000
==== e(  36) =    45.71833 eV ==== 

    |psi|^2 = 0.000

 k =  -0.3333333333  0.3333333333 -0.3333333333
==== e(   1) =    -4.37761 eV ==== 
     psi = 0.362*[#   1]+0.362*[#   5]+0.045*[#   2]+0.045*[#   3]+0.045*[#   4]
          +0.045*[#   6]+0.045*[#   7]+0.045*[#   8]
    |psi|^2 = 0.996
==== e(   2) =     0.87406 eV ==== 
     psi = 0.151*[#   1]+0.151*[#   5]+0.114*[#   2]+0.114*[#   3]+0.114*[#   4]
          +0.114*[#   6]+0.114*[#   7]+0.114*[#   8]
    |psi|^2 = 0.988
==== e(   3) =     5.21035 eV ==== 
     psi = 0.164*[#   2]+0.164*[#   3]+0.164*[#   4]+0.164*[#   6]+0.164*[#   7]
          +0.164*[#   8]
    |psi|^2 = 0.984
==== e(   4) =     5.21035 eV ==== 
     psi = 0.164*[#   2]+0.164*[#   3]+0.164*[#   4]+0.164*[#   6]+0.164*[#   7]
          +0.164*[#   8]
    |psi|^2 = 0.984
==== e(   5) =     7.97728 eV ==== 
     psi = 0.306*[#   1]+0.306*[#   5]+0.054*[#   2]+0.054*[#   3]+0.054*[#   4]
          +0.054*[#   6]+0.054*[#   7]+0.054*[#   8]
    |psi|^2 = 0.933
==== e(   6) =     9.72054 eV ==== 
     psi = 0.135*[#   2]+0.135*[#   3]+0.135*[#   4]+0.135*[#   6]+0.135*[#   7]
          +0.135*[#   8]
    |psi|^2 = 0.813
==== e(   7) =     9.72054 eV ==== 
     psi = 0.135*[#   2]+0.135*[#   3]+0.135*[#   4]+0.135*[#   6]+0.135*[#   7]
          +0.135*[#   8]
    |psi|^2 = 0.813
==== e(   8) =    14.08629 eV ==== 
     psi = 0.073*[#   1]+0.073*[#   5]+0.060*[#   2]+0.060*[#   3]+0.060*[#   4]
          +0.060*[#   6]+0.060*[#   7]+0.060*[#   8]
    |psi|^2 = 0.503
==== e(   9) =    14.20780 eV ==== 
     psi = 0.016*[#   2]+0.016*[#   3]+0.016*[#   4]+0.016*[#   6]+0.016*[#   7]
          +0.016*[#   8]
    |psi|^2 = 0.093
==== e(  10) =    14.20780 eV ==== 
     psi = 0.016*[#   2]+0.016*[#   3]+0.016*[#   4]+0.016*[#   6]+0.016*[#   7]
          +0.016*[#   8]
    |psi|^2 = 0.093
==== e(  11) =    15.34057 eV ==== 
     psi = 0.069*[#   1]+0.069*[#   5]+0.025*[#   2]+0.025*[#   3]+0.025*[#   4]
          +0.025*[#   6]+0.025*[#   7]+0.025*[#   8]
    |psi|^2 = 0.286
==== e(  12) =    19.83448 eV ==== 
     psi = 0.021*[#   1]+0.021*[#   5]+0.015*[#   2]+0.015*[#   3]+0.015*[#   4]
          +0.015*[#   6]+0.015*[#   7]+0.015*[#   8]
    |psi|^2 = 0.131
==== e(  13) =    20.82566 eV ==== 
     psi = 0.010*[#   2]+0.010*[#   3]+0.010*[#   4]+0.010*[#   6]+0.010*[#   7]
          +0.010*[#   8]
    |psi|^2 = 0.063
==== e(  14) =    20.82566 eV ==== 
     psi = 0.010*[#   2]+0.010*[#   3]+0.010*[#   4]+0.010*[#   6]+0.010*[#   7]
          +0.010*[#   8]
    |psi|^2 = 0.063
==== e(  15) =    23.03085 eV ==== 
     psi = 0.019*[#   2]+0.019*[#   3]+0.019*[#   4]+0.019*[#   6]+0.019*[#   7]
          +0.019*[#   8]+0.012*[#   1]+0.012*[#   5]
    |psi|^2 = 0.137
==== e(  16) =    23.89761 eV ==== 

    |psi|^2 = 0.003
==== e(  17) =    23.89761 eV ==== 

    |psi|^2 = 0.003
==== e(  18) =    28.14342 eV ==== 

    |psi|^2 = 0.002
==== e(  19) =    30.15215 eV ==== 

    |psi|^2 = 0.004
==== e(  20) =    30.15215 eV ==== 

    |psi|^2 = 0.004
==== e(  21) =    31.41155 eV ==== 
     psi = 0.004*[#   1]+0.004*[#   5]+0.002*[#   2]+0.002*[#   3]+0.002*[#   4]
          +0.002*[#   6]+0.002*[#   7]+0.002*[#   8]
    |psi|^2 = 0.021
==== e(  22) =    32.97815 eV ==== 
     psi = 0.005*[#   2]+0.005*[#   3]+0.005*[#   4]+0.005*[#   6]+0.005*[#   7]
          +0.005*[#   8]
    |psi|^2 = 0.029
==== e(  23) =    32.97815 eV ==== 
     psi = 0.005*[#   2]+0.005*[#   3]+0.005*[#   4]+0.005*[#   6]+0.005*[#   7]
          +0.005*[#   8]
    |psi|^2 = 0.029
==== e(  24) =    35.61866 eV ==== 
     psi = 0.001*[#   2]+0.001*[#   3]+0.001*[#   4]+0.001*[#   6]+0.001*[#   7]
          +0.001*[#   8]
    |psi|^2 = 0.006
==== e(  25) =    35.61866 eV ==== 
     psi = 0.001*[#   2]+0.001*[#   3]+0.001*[#   4]+0.001*[#   6]+0.001*[#   7]
          +0.001*[#   8]
    |psi|^2 = 0.006
==== e(  26) =    36.00431 eV ==== 

    |psi|^2 = 0.002
==== e(  27) =    36.80201 eV ==== 

    |psi|^2 = 0.000
==== e(  28) =    38.90738 eV ==== 

    |psi|^2 = 0.002
==== e(  29) =    38.90738 eV ==== 

    |psi|^2 = 0.002
==== e(  30) =    40.05585 eV ==== 

    |psi|^2 = 0.000
==== e(  31) =    40.05585 eV ==== 

    |psi|^2 = 0.000
==== e(  32) =    42.02253 eV ==== 

    |psi|^2 = 0.000
==== e(  33) =    44.20943 eV ==== 

    |psi|^2 = 0.000
==== e(  34) =    44.35287 eV ==== 

    |psi|^2 = 0.000
==== e(  35) =    46.49747 eV ==== 

    |psi|^2 = 0.001
==== e(  36) =    46.49747 eV ==== 

    |psi|^2 = 0.001

 k =  -0.4166666667  0.4166666667 -0.4166666667
==== e(   1) =    -3.75670 eV ==== 
     psi = 0.368*[#   1]+0.368*[#   5]+0.043*[#   2]+0.043*[#   3]+0.043*[#   4]
          +0.043*[#   6]+0.043*[#   7]+0.043*[#   8]
    |psi|^2 = 0.996
==== e(   2) =    -0.25668 eV ==== 
     psi = 0.139*[#   1]+0.139*[#   5]+0.118*[#   2]+0.118*[#   3]+0.118*[#   4]
          +0.118*[#   6]+0.118*[#   7]+0.118*[#   8]
    |psi|^2 = 0.988
==== e(   3) =     5.06169 eV ==== 
     psi = 0.164*[#   2]+0.164*[#   3]+0.164*[#   4]+0.164*[#   6]+0.164*[#   7]
          +0.164*[#   8]
    |psi|^2 = 0.987
==== e(   4) =     5.06169 eV ==== 
     psi = 0.164*[#   2]+0.164*[#   3]+0.164*[#   4]+0.164*[#   6]+0.164*[#   7]
          +0.164*[#   8]
    |psi|^2 = 0.987
==== e(   5) =     7.80901 eV ==== 
     psi = 0.331*[#   1]+0.331*[#   5]+0.044*[#   2]+0.044*[#   3]+0.044*[#   4]
          +0.044*[#   6]+0.044*[#   7]+0.044*[#   8]
    |psi|^2 = 0.923
==== e(   6) =     9.60797 eV ==== 
     psi = 0.129*[#   2]+0.129*[#   3]+0.129*[#   4]+0.129*[#   6]+0.129*[#   7]
          +0.129*[#   8]
    |psi|^2 = 0.776
==== e(   7) =     9.60797 eV ==== 
     psi = 0.129*[#   2]+0.129*[#   3]+0.129*[#   4]+0.129*[#   6]+0.129*[#   7]
          +0.129*[#   8]
    |psi|^2 = 0.776
==== e(   8) =    14.03019 eV ==== 
     psi = 0.027*[#   2]+0.027*[#   3]+0.027*[#   4]+0.027*[#   6]+0.027*[#   7]
          +0.027*[#   8]+0.024*[#   1]+0.024*[#   5]
    |psi|^2 = 0.208
==== e(   9) =    15.49425 eV ==== 
     psi = 0.016*[#   2]+0.016*[#   3]+0.016*[#   4]+0.016*[#   6]+0.016*[#   7]
          +0.016*[#   8]
    |psi|^2 = 0.094
==== e(  10) =    15.49425 eV ==== 
     psi = 0.016*[#   2]+0.016*[#   3]+0.016*[#   4]+0.016*[#   6]+0.016*[#   7]
          +0.016*[#   8]
    |psi|^2 = 0.094
==== e(  11) =    16.59387 eV ==== 
     psi = 0.073*[#   1]+0.073*[#   5]+0.037*[#   2]+0.037*[#   3]+0.037*[#   4]
          +0.037*[#   6]+0.037*[#   7]+0.037*[#   8]
    |psi|^2 = 0.368
==== e(  12) =    19.04774 eV ==== 
     psi = 0.016*[#   2]+0.016*[#   3]+0.016*[#   4]+0.016*[#   6]+0.016*[#   7]
          +0.016*[#   8]
    |psi|^2 = 0.095
==== e(  13) =    19.04774 eV ==== 
     psi = 0.016*[#   2]+0.016*[#   3]+0.016*[#   4]+0.016*[#   6]+0.016*[#   7]
          +0.016*[#   8]
    |psi|^2 = 0.095
==== e(  14) =    20.07467 eV ==== 
     psi = 0.059*[#   2]+0.059*[#   3]+0.059*[#   4]+0.059*[#   6]+0.059*[#   7]
          +0.059*[#   8]+0.051*[#   1]+0.051*[#   5]
    |psi|^2 = 0.458
==== e(  15) =    23.52465 eV ==== 
     psi = 0.007*[#   1]+0.007*[#   5]+0.002*[#   2]+0.002*[#   3]+0.002*[#   4]
          +0.002*[#   6]+0.002*[#   7]+0.002*[#   8]
    |psi|^2 = 0.028
==== e(  16) =    25.79322 eV ==== 

    |psi|^2 = 0.002
==== e(  17) =    25.79322 eV ==== 

    |psi|^2 = 0.002
==== e(  18) =    28.59104 eV ==== 
     psi = 0.005*[#   1]+0.005*[#   5]+0.002*[#   2]+0.002*[#   3]+0.002*[#   4]
          +0.002*[#   6]+0.002*[#   7]+0.002*[#   8]
    |psi|^2 = 0.023
==== e(  19) =    29.57073 eV ==== 

    |psi|^2 = 0.003
==== e(  20) =    29.57073 eV ==== 

    |psi|^2 = 0.003
==== e(  21) =    30.41082 eV ==== 

    |psi|^2 = 0.001
==== e(  22) =    32.88053 eV ==== 
     psi = 0.002*[#   2]+0.002*[#   3]+0.002*[#   4]+0.002*[#   6]+0.002*[#   7]
          +0.002*[#   8]
    |psi|^2 = 0.014
==== e(  23) =    32.88053 eV ==== 
     psi = 0.002*[#   2]+0.002*[#   3]+0.002*[#   4]+0.002*[#   6]+0.002*[#   7]
          +0.002*[#   8]
    |psi|^2 = 0.014
==== e(  24) =    33.92872 eV ==== 
     psi = 0.004*[#   2]+0.004*[#   3]+0.004*[#   4]+0.004*[#   6]+0.004*[#   7]
          +0.004*[#   8]
    |psi|^2 = 0.027
==== e(  25) =    33.92872 eV ==== 
     psi = 0.004*[#   2]+0.004*[#   3]+0.004*[#   4]+0.004*[#   6]+0.004*[#   7]
          +0.004*[#   8]
    |psi|^2 = 0.027
==== e(  26) =    35.60299 eV ==== 

    |psi|^2 = 0.001
==== e(  27) =    37.23930 eV ==== 

    |psi|^2 = 0.000
==== e(  28) =    38.57964 eV ==== 

    |psi|^2 = 0.001
==== e(  29) =    38.57964 eV ==== 

    |psi|^2 = 0.001
==== e(  30) =    39.38638 eV ==== 

    |psi|^2 = 0.000
==== e(  31) =    39.38638 eV ==== 

    |psi|^2 = 0.000
==== e(  32) =    40.34539 eV ==== 

    |psi|^2 = 0.002
==== e(  33) =    43.14836 eV ==== 

    |psi|^2 = 0.000
==== e(  34) =    43.50839 eV ==== 

    |psi|^2 = 0.000
==== e(  35) =    46.94585 eV ==== 

    |psi|^2 = 0.001
==== e(  36) =    46.94585 eV ==== 

    |psi|^2 = 0.001

 k =   0.5000000000 -0.5000000000  0.5000000000
==== e(   1) =    -3.42225 eV ==== 
     psi = 0.386*[#   1]+0.386*[#   5]+0.037*[#   2]+0.037*[#   3]+0.037*[#   4]
          +0.037*[#   6]+0.037*[#   7]+0.037*[#   8]
    |psi|^2 = 0.997
==== e(   2) =    -0.76265 eV ==== 
     psi = 0.125*[#   2]+0.125*[#   3]+0.125*[#   4]+0.125*[#   6]+0.125*[#   7]
          +0.125*[#   8]+0.119*[#   1]+0.119*[#   5]
    |psi|^2 = 0.987
==== e(   3) =     5.01184 eV ==== 
     psi = 0.165*[#   2]+0.165*[#   3]+0.165*[#   4]+0.165*[#   6]+0.165*[#   7]
          +0.165*[#   8]
    |psi|^2 = 0.987
==== e(   4) =     5.01184 eV ==== 
     psi = 0.165*[#   2]+0.165*[#   3]+0.165*[#   4]+0.165*[#   6]+0.165*[#   7]
          +0.165*[#   8]
    |psi|^2 = 0.987
==== e(   5) =     7.75185 eV ==== 
     psi = 0.339*[#   1]+0.339*[#   5]+0.040*[#   2]+0.040*[#   3]+0.040*[#   4]
          +0.040*[#   6]+0.040*[#   7]+0.040*[#   8]
    |psi|^2 = 0.920
==== e(   6) =     9.55351 eV ==== 
     psi = 0.128*[#   2]+0.128*[#   3]+0.128*[#   4]+0.128*[#   6]+0.128*[#   7]
          +0.128*[#   8]
    |psi|^2 = 0.767
==== e(   7) =     9.55351 eV ==== 
     psi = 0.128*[#   2]+0.128*[#   3]+0.128*[#   4]+0.128*[#   6]+0.128*[#   7]
          +0.128*[#   8]
    |psi|^2 = 0.767
==== e(   8) =    13.94800 eV ==== 
     psi = 0.022*[#   2]+0.022*[#   3]+0.022*[#   4]+0.022*[#   6]+0.022*[#   7]
          +0.022*[#   8]+0.019*[#   1]+0.019*[#   5]
    |psi|^2 = 0.170
==== e(   9) =    16.77430 eV ==== 

    |psi|^2 = 0.006
==== e(  10) =    16.77430 eV ==== 

    |psi|^2 = 0.006
==== e(  11) =    17.56370 eV ==== 
     psi = 0.032*[#   2]+0.032*[#   3]+0.032*[#   4]+0.032*[#   6]+0.032*[#   7]
          +0.032*[#   8]
    |psi|^2 = 0.190
==== e(  12) =    17.56370 eV ==== 
     psi = 0.032*[#   2]+0.032*[#   3]+0.032*[#   4]+0.032*[#   6]+0.032*[#   7]
          +0.032*[#   8]
    |psi|^2 = 0.190
==== e(  13) =    17.57470 eV ==== 
     psi = 0.032*[#   1]+0.032*[#   5]
    |psi|^2 = 0.065
==== e(  14) =    19.23025 eV ==== 
     psi = 0.105*[#   2]+0.105*[#   3]+0.105*[#   4]+0.105*[#   6]+0.105*[#   7]
          +0.105*[#   8]+0.089*[#   1]+0.089*[#   5]
    |psi|^2 = 0.810
==== e(  15) =    25.56850 eV ==== 
     psi = 0.009*[#   1]+0.009*[#   5]+0.002*[#   2]+0.002*[#   3]+0.002*[#   4]
          +0.002*[#   6]+0.002*[#   7]+0.002*[#   8]
    |psi|^2 = 0.028
==== e(  16) =    26.20710 eV ==== 
     psi = 0.005*[#   1]+0.005*[#   5]+0.001*[#   2]+0.001*[#   3]+0.001*[#   4]
          +0.001*[#   6]+0.001*[#   7]+0.001*[#   8]
    |psi|^2 = 0.016
==== e(  17) =    27.84533 eV ==== 

    |psi|^2 = 0.000
==== e(  18) =    27.84533 eV ==== 

    |psi|^2 = 0.000
==== e(  19) =    27.99163 eV ==== 

    |psi|^2 = 0.004
==== e(  20) =    27.99163 eV ==== 

    |psi|^2 = 0.004
==== e(  21) =    31.88092 eV ==== 

    |psi|^2 = 0.000
==== e(  22) =    32.63143 eV ==== 

    |psi|^2 = 0.002
==== e(  23) =    32.63143 eV ==== 

    |psi|^2 = 0.002
==== e(  24) =    33.61234 eV ==== 
     psi = 0.007*[#   2]+0.007*[#   3]+0.007*[#   4]+0.007*[#   6]+0.007*[#   7]
          +0.007*[#   8]
    |psi|^2 = 0.041
==== e(  25) =    33.61234 eV ==== 
     psi = 0.007*[#   2]+0.007*[#   3]+0.007*[#   4]+0.007*[#   6]+0.007*[#   7]
          +0.007*[#   8]
    |psi|^2 = 0.041
==== e(  26) =    34.58294 eV ==== 

    |psi|^2 = 0.001
==== e(  27) =    37.43143 eV ==== 

    |psi|^2 = 0.000
==== e(  28) =    38.52301 eV ==== 

    |psi|^2 = 0.000
==== e(  29) =    38.52301 eV ==== 

    |psi|^2 = 0.000
==== e(  30) =    39.07003 eV ==== 

    |psi|^2 = 0.000
==== e(  31) =    39.07003 eV ==== 

    |psi|^2 = 0.000
==== e(  32) =    40.01676 eV ==== 

    |psi|^2 = 0.004
==== e(  33) =    42.74815 eV ==== 

    |psi|^2 = 0.000
==== e(  34) =    43.12214 eV ==== 

    |psi|^2 = 0.000
==== e(  35) =    46.93032 eV ==== 

    |psi|^2 = 0.001
==== e(  36) =    46.93032 eV ==== 

    |psi|^2 = 0.001

 k =   0.0000000000  0.1666666667  0.0000000000
==== e(   1) =    -5.63346 eV ==== 
     psi = 0.467*[#   1]+0.467*[#   5]+0.010*[#   2]+0.010*[#   3]+0.010*[#   4]
          +0.010*[#   6]+0.010*[#   7]+0.010*[#   8]
    |psi|^2 = 0.996
==== e(   2) =     5.51886 eV ==== 
     psi = 0.133*[#   2]+0.133*[#   3]+0.133*[#   4]+0.133*[#   6]+0.133*[#   7]
          +0.133*[#   8]+0.086*[#   1]+0.086*[#   5]
    |psi|^2 = 0.969
==== e(   3) =     5.78165 eV ==== 
     psi = 0.162*[#   2]+0.162*[#   3]+0.162*[#   4]+0.162*[#   6]+0.162*[#   7]
          +0.162*[#   8]
    |psi|^2 = 0.971
==== e(   4) =     5.78165 eV ==== 
     psi = 0.162*[#   2]+0.162*[#   3]+0.162*[#   4]+0.162*[#   6]+0.162*[#   7]
          +0.162*[#   8]
    |psi|^2 = 0.971
==== e(   5) =     8.50115 eV ==== 
     psi = 0.151*[#   2]+0.151*[#   3]+0.151*[#   4]+0.151*[#   6]+0.151*[#   7]
          +0.151*[#   8]+0.030*[#   1]+0.030*[#   5]
    |psi|^2 = 0.964
==== e(   6) =     9.35526 eV ==== 
     psi = 0.158*[#   2]+0.158*[#   3]+0.158*[#   4]+0.158*[#   6]+0.158*[#   7]
          +0.158*[#   8]
    |psi|^2 = 0.949
==== e(   7) =     9.35526 eV ==== 
     psi = 0.158*[#   2]+0.158*[#   3]+0.158*[#   4]+0.158*[#   6]+0.158*[#   7]
          +0.158*[#   8]
    |psi|^2 = 0.949
==== e(   8) =    10.22033 eV ==== 
     psi = 0.404*[#   1]+0.404*[#   5]+0.029*[#   2]+0.029*[#   3]+0.029*[#   4]
          +0.029*[#   6]+0.029*[#   7]+0.029*[#   8]
    |psi|^2 = 0.980
==== e(   9) =    13.17875 eV ==== 
     psi = 0.004*[#   1]+0.004*[#   5]
    |psi|^2 = 0.010
==== e(  10) =    14.07831 eV ==== 

    |psi|^2 = 0.000
==== e(  11) =    14.69256 eV ==== 
     psi = 0.002*[#   1]+0.002*[#   5]
    |psi|^2 = 0.004
==== e(  12) =    17.68547 eV ==== 
     psi = 0.004*[#   2]+0.004*[#   3]+0.004*[#   4]+0.004*[#   6]+0.004*[#   7]
          +0.004*[#   8]
    |psi|^2 = 0.023
==== e(  13) =    17.68547 eV ==== 
     psi = 0.004*[#   2]+0.004*[#   3]+0.004*[#   4]+0.004*[#   6]+0.004*[#   7]
          +0.004*[#   8]
    |psi|^2 = 0.023
==== e(  14) =    18.00711 eV ==== 
     psi = 0.002*[#   2]+0.002*[#   3]+0.002*[#   4]+0.002*[#   6]+0.002*[#   7]
          +0.002*[#   8]+0.001*[#   1]+0.001*[#   5]
    |psi|^2 = 0.014
==== e(  15) =    22.47710 eV ==== 
     psi = 0.004*[#   1]+0.004*[#   5]
    |psi|^2 = 0.013
==== e(  16) =    27.88274 eV ==== 
     psi = 0.005*[#   2]+0.005*[#   3]+0.005*[#   4]+0.005*[#   6]+0.005*[#   7]
          +0.005*[#   8]
    |psi|^2 = 0.028
==== e(  17) =    27.88274 eV ==== 
     psi = 0.005*[#   2]+0.005*[#   3]+0.005*[#   4]+0.005*[#   6]+0.005*[#   7]
          +0.005*[#   8]
    |psi|^2 = 0.028
==== e(  18) =    29.07922 eV ==== 

    |psi|^2 = 0.000
==== e(  19) =    29.39914 eV ==== 
     psi = 0.002*[#   2]+0.002*[#   3]+0.002*[#   4]+0.002*[#   6]+0.002*[#   7]
          +0.002*[#   8]
    |psi|^2 = 0.013
==== e(  20) =    29.52086 eV ==== 
     psi = 0.002*[#   2]+0.002*[#   3]+0.002*[#   4]+0.002*[#   6]+0.002*[#   7]
          +0.002*[#   8]
    |psi|^2 = 0.015
==== e(  21) =    32.38367 eV ==== 
     psi = 0.002*[#   2]+0.002*[#   3]+0.002*[#   4]+0.002*[#   6]+0.002*[#   7]
          +0.002*[#   8]
    |psi|^2 = 0.016
==== e(  22) =    32.69183 eV ==== 
     psi = 0.004*[#   2]+0.004*[#   3]+0.004*[#   4]+0.004*[#   6]+0.004*[#   7]
          +0.004*[#   8]
    |psi|^2 = 0.023
==== e(  23) =    32.69183 eV ==== 
     psi = 0.004*[#   2]+0.004*[#   3]+0.004*[#   4]+0.004*[#   6]+0.004*[#   7]
          +0.004*[#   8]
    |psi|^2 = 0.023
==== e(  24) =    36.50260 eV ==== 

    |psi|^2 = 0.001
==== e(  25) =    36.50260 eV ==== 

    |psi|^2 = 0.001
==== e(  26) =    36.87653 eV ==== 

    |psi|^2 = 0.000
==== e(  27) =    40.01953 eV ==== 

    |psi|^2 = 0.003
==== e(  28) =    40.01953 eV ==== 

    |psi|^2 = 0.003
==== e(  29) =    40.04255 eV ==== 

    |psi|^2 = 0.004
==== e(  30) =    42.94384 eV ==== 

    |psi|^2 = 0.000
==== e(  31) =    44.24984 eV ==== 

    |psi|^2 = 0.000
==== e(  32) =    44.48927 eV ==== 

    |psi|^2 = 0.000
==== e(  33) =    45.47879 eV ==== 

    |psi|^2 = 0.000
==== e(  34) =    46.52839 eV ==== 

    |psi|^2 = 0.000
==== e(  35) =    48.20102 eV ==== 

    |psi|^2 = 0.001
==== e(  36) =    48.20102 eV ==== 

    |psi|^2 = 0.001

 k =  -0.0833333333  0.2500000000 -0.0833333333
==== e(   1) =    -5.42241 eV ==== 
     psi = 0.428*[#   1]+0.428*[#   5]+0.023*[#   2]+0.023*[#   3]+0.023*[#   4]
          +0.023*[#   6]+0.023*[#   7]+0.023*[#   8]
    |psi|^2 = 0.996
==== e(   2) =     4.28354 eV ==== 
     psi = 0.126*[#   2]+0.126*[#   3]+0.126*[#   4]+0.126*[#   6]+0.126*[#   7]
          +0.126*[#   8]+0.112*[#   1]+0.112*[#   5]
    |psi|^2 = 0.979
==== e(   3) =     5.41703 eV ==== 
     psi = 0.163*[#   2]+0.163*[#   3]+0.163*[#   4]+0.163*[#   6]+0.163*[#   7]
          +0.163*[#   8]
    |psi|^2 = 0.977
==== e(   4) =     5.60848 eV ==== 
     psi = 0.153*[#   2]+0.153*[#   3]+0.153*[#   4]+0.153*[#   6]+0.153*[#   7]
          +0.153*[#   8]+0.027*[#   1]+0.027*[#   5]
    |psi|^2 = 0.975
==== e(   5) =     8.52399 eV ==== 
     psi = 0.141*[#   2]+0.141*[#   3]+0.141*[#   4]+0.141*[#   6]+0.141*[#   7]
          +0.141*[#   8]+0.053*[#   1]+0.053*[#   5]
    |psi|^2 = 0.953
==== e(   6) =     9.43924 eV ==== 
     psi = 0.123*[#   2]+0.123*[#   3]+0.123*[#   4]+0.123*[#   6]+0.123*[#   7]
          +0.123*[#   8]+0.107*[#   1]+0.107*[#   5]
    |psi|^2 = 0.952
==== e(   7) =     9.89438 eV ==== 
     psi = 0.155*[#   2]+0.155*[#   3]+0.155*[#   4]+0.155*[#   6]+0.155*[#   7]
          +0.155*[#   8]
    |psi|^2 = 0.931
==== e(   8) =    11.11709 eV ==== 
     psi = 0.219*[#   1]+0.219*[#   5]+0.068*[#   2]+0.068*[#   3]+0.068*[#   4]
          +0.068*[#   6]+0.068*[#   7]+0.068*[#   8]
    |psi|^2 = 0.848
==== e(   9) =    12.84319 eV ==== 
     psi = 0.041*[#   1]+0.041*[#   5]+0.006*[#   2]+0.006*[#   3]+0.006*[#   4]
          +0.006*[#   6]+0.006*[#   7]+0.006*[#   8]
    |psi|^2 = 0.121
==== e(  10) =    14.02093 eV ==== 

    |psi|^2 = 0.004
==== e(  11) =    15.42026 eV ==== 
     psi = 0.002*[#   1]+0.002*[#   5]
    |psi|^2 = 0.008
==== e(  12) =    17.29288 eV ==== 
     psi = 0.002*[#   1]+0.002*[#   5]+0.002*[#   2]+0.002*[#   3]+0.002*[#   4]
          +0.002*[#   6]+0.002*[#   7]+0.002*[#   8]
    |psi|^2 = 0.015
==== e(  13) =    18.41652 eV ==== 
     psi = 0.004*[#   2]+0.004*[#   3]+0.004*[#   4]+0.004*[#   6]+0.004*[#   7]
          +0.004*[#   8]
    |psi|^2 = 0.021
==== e(  14) =    19.23923 eV ==== 
     psi = 0.002*[#   2]+0.002*[#   3]+0.002*[#   4]+0.002*[#   6]+0.002*[#   7]
          +0.002*[#   8]
    |psi|^2 = 0.014
==== e(  15) =    23.63819 eV ==== 
     psi = 0.003*[#   1]+0.003*[#   5]+0.002*[#   2]+0.002*[#   3]+0.002*[#   4]
          +0.002*[#   6]+0.002*[#   7]+0.002*[#   8]
    |psi|^2 = 0.017
==== e(  16) =    26.04472 eV ==== 
     psi = 0.005*[#   2]+0.005*[#   3]+0.005*[#   4]+0.005*[#   6]+0.005*[#   7]
          +0.005*[#   8]
    |psi|^2 = 0.030
==== e(  17) =    26.35780 eV ==== 
     psi = 0.006*[#   2]+0.006*[#   3]+0.006*[#   4]+0.006*[#   6]+0.006*[#   7]
          +0.006*[#   8]+0.001*[#   1]+0.001*[#   5]
    |psi|^2 = 0.038
==== e(  18) =    28.44157 eV ==== 
     psi = 0.004*[#   2]+0.004*[#   3]+0.004*[#   4]+0.004*[#   6]+0.004*[#   7]
          +0.004*[#   8]
    |psi|^2 = 0.025
==== e(  19) =    28.73158 eV ==== 
     psi = 0.001*[#   2]+0.001*[#   3]+0.001*[#   4]+0.001*[#   6]+0.001*[#   7]
          +0.001*[#   8]
    |psi|^2 = 0.007
==== e(  20) =    29.40501 eV ==== 
     psi = 0.002*[#   2]+0.002*[#   3]+0.002*[#   4]+0.002*[#   6]+0.002*[#   7]
          +0.002*[#   8]
    |psi|^2 = 0.014
==== e(  21) =    32.45034 eV ==== 
     psi = 0.002*[#   2]+0.002*[#   3]+0.002*[#   4]+0.002*[#   6]+0.002*[#   7]
          +0.002*[#   8]+0.001*[#   1]+0.001*[#   5]
    |psi|^2 = 0.013
==== e(  22) =    33.02663 eV ==== 
     psi = 0.004*[#   2]+0.004*[#   3]+0.004*[#   4]+0.004*[#   6]+0.004*[#   7]
          +0.004*[#   8]
    |psi|^2 = 0.023
==== e(  23) =    33.73846 eV ==== 
     psi = 0.003*[#   2]+0.003*[#   3]+0.003*[#   4]+0.003*[#   6]+0.003*[#   7]
          +0.003*[#   8]
    |psi|^2 = 0.016
==== e(  24) =    36.82355 eV ==== 

    |psi|^2 = 0.001
==== e(  25) =    37.94114 eV ==== 

    |psi|^2 = 0.004
==== e(  26) =    37.98117 eV ==== 

    |psi|^2 = 0.002
==== e(  27) =    38.74428 eV ==== 

    |psi|^2 = 0.001
==== e(  28) =    39.24650 eV ==== 

    |psi|^2 = 0.003
==== e(  29) =    39.93519 eV ==== 

    |psi|^2 = 0.003
==== e(  30) =    41.26699 eV ==== 

    |psi|^2 = 0.001
==== e(  31) =    43.15032 eV ==== 

    |psi|^2 = 0.000
==== e(  32) =    43.16168 eV ==== 

    |psi|^2 = 0.001
==== e(  33) =    45.44529 eV ==== 

    |psi|^2 = 0.001
==== e(  34) =    45.72508 eV ==== 

    |psi|^2 = 0.000
==== e(  35) =    46.85005 eV ==== 

    |psi|^2 = 0.000
==== e(  36) =    47.05717 eV ==== 

    |psi|^2 = 0.000

 k =  -0.1666666667  0.3333333333 -0.1666666667
==== e(   1) =    -5.03831 eV ==== 
     psi = 0.387*[#   1]+0.387*[#   5]+0.037*[#   2]+0.037*[#   3]+0.037*[#   4]
          +0.037*[#   6]+0.037*[#   7]+0.037*[#   8]
    |psi|^2 = 0.996
==== e(   2) =     2.78033 eV ==== 
     psi = 0.141*[#   1]+0.141*[#   5]+0.117*[#   2]+0.117*[#   3]+0.117*[#   4]
          +0.117*[#   6]+0.117*[#   7]+0.117*[#   8]
    |psi|^2 = 0.985
==== e(   3) =     5.10346 eV ==== 
     psi = 0.164*[#   2]+0.164*[#   3]+0.164*[#   4]+0.164*[#   6]+0.164*[#   7]
          +0.164*[#   8]
    |psi|^2 = 0.982
==== e(   4) =     5.28465 eV ==== 
     psi = 0.150*[#   2]+0.150*[#   3]+0.150*[#   4]+0.150*[#   6]+0.150*[#   7]
          +0.150*[#   8]+0.040*[#   1]+0.040*[#   5]
    |psi|^2 = 0.980
==== e(   5) =     8.65199 eV ==== 
     psi = 0.133*[#   1]+0.133*[#   5]+0.110*[#   2]+0.110*[#   3]+0.110*[#   4]
          +0.110*[#   6]+0.110*[#   7]+0.110*[#   8]
    |psi|^2 = 0.928
==== e(   6) =     9.42849 eV ==== 
     psi = 0.129*[#   2]+0.129*[#   3]+0.129*[#   4]+0.129*[#   6]+0.129*[#   7]
          +0.129*[#   8]+0.084*[#   1]+0.084*[#   5]
    |psi|^2 = 0.941
==== e(   7) =    10.28047 eV ==== 
     psi = 0.148*[#   2]+0.148*[#   3]+0.148*[#   4]+0.148*[#   6]+0.148*[#   7]
          +0.148*[#   8]
    |psi|^2 = 0.887
==== e(   8) =    11.61728 eV ==== 
     psi = 0.084*[#   1]+0.084*[#   5]+0.044*[#   2]+0.044*[#   3]+0.044*[#   4]
          +0.044*[#   6]+0.044*[#   7]+0.044*[#   8]
    |psi|^2 = 0.435
==== e(   9) =    13.61477 eV ==== 
     psi = 0.111*[#   1]+0.111*[#   5]+0.048*[#   2]+0.048*[#   3]+0.048*[#   4]
          +0.048*[#   6]+0.048*[#   7]+0.048*[#   8]
    |psi|^2 = 0.507
==== e(  10) =    14.08033 eV ==== 
     psi = 0.005*[#   2]+0.005*[#   3]+0.005*[#   4]+0.005*[#   6]+0.005*[#   7]
          +0.005*[#   8]
    |psi|^2 = 0.029
==== e(  11) =    15.76920 eV ==== 
     psi = 0.003*[#   1]+0.003*[#   5]+0.002*[#   2]+0.002*[#   3]+0.002*[#   4]
          +0.002*[#   6]+0.002*[#   7]+0.002*[#   8]
    |psi|^2 = 0.017
==== e(  12) =    17.71813 eV ==== 
     psi = 0.007*[#   1]+0.007*[#   5]
    |psi|^2 = 0.017
==== e(  13) =    19.75983 eV ==== 
     psi = 0.004*[#   2]+0.004*[#   3]+0.004*[#   4]+0.004*[#   6]+0.004*[#   7]
          +0.004*[#   8]
    |psi|^2 = 0.025
==== e(  14) =    20.86473 eV ==== 
     psi = 0.003*[#   2]+0.003*[#   3]+0.003*[#   4]+0.003*[#   6]+0.003*[#   7]
          +0.003*[#   8]
    |psi|^2 = 0.016
==== e(  15) =    23.85344 eV ==== 
     psi = 0.006*[#   2]+0.006*[#   3]+0.006*[#   4]+0.006*[#   6]+0.006*[#   7]
          +0.006*[#   8]
    |psi|^2 = 0.034
==== e(  16) =    24.28372 eV ==== 
     psi = 0.010*[#   2]+0.010*[#   3]+0.010*[#   4]+0.010*[#   6]+0.010*[#   7]
          +0.010*[#   8]+0.005*[#   1]+0.005*[#   5]
    |psi|^2 = 0.069
==== e(  17) =    25.15321 eV ==== 
     psi = 0.003*[#   2]+0.003*[#   3]+0.003*[#   4]+0.003*[#   6]+0.003*[#   7]
          +0.003*[#   8]+0.001*[#   1]+0.001*[#   5]
    |psi|^2 = 0.019
==== e(  18) =    27.08579 eV ==== 
     psi = 0.005*[#   2]+0.005*[#   3]+0.005*[#   4]+0.005*[#   6]+0.005*[#   7]
          +0.005*[#   8]+0.001*[#   1]+0.001*[#   5]
    |psi|^2 = 0.030
==== e(  19) =    28.84272 eV ==== 
     psi = 0.002*[#   2]+0.002*[#   3]+0.002*[#   4]+0.002*[#   6]+0.002*[#   7]
          +0.002*[#   8]
    |psi|^2 = 0.011
==== e(  20) =    29.57934 eV ==== 
     psi = 0.002*[#   2]+0.002*[#   3]+0.002*[#   4]+0.002*[#   6]+0.002*[#   7]
          +0.002*[#   8]
    |psi|^2 = 0.014
==== e(  21) =    32.43328 eV ==== 
     psi = 0.002*[#   2]+0.002*[#   3]+0.002*[#   4]+0.002*[#   6]+0.002*[#   7]
          +0.002*[#   8]+0.001*[#   1]+0.001*[#   5]
    |psi|^2 = 0.014
==== e(  22) =    33.28650 eV ==== 
     psi = 0.004*[#   2]+0.004*[#   3]+0.004*[#   4]+0.004*[#   6]+0.004*[#   7]
          +0.004*[#   8]
    |psi|^2 = 0.026
==== e(  23) =    34.40075 eV ==== 
     psi = 0.002*[#   2]+0.002*[#   3]+0.002*[#   4]+0.002*[#   6]+0.002*[#   7]
          +0.002*[#   8]+0.002*[#   1]+0.002*[#   5]
    |psi|^2 = 0.017
==== e(  24) =    35.89375 eV ==== 

    |psi|^2 = 0.003
==== e(  25) =    37.09907 eV ==== 

    |psi|^2 = 0.001
==== e(  26) =    38.23288 eV ==== 

    |psi|^2 = 0.002
==== e(  27) =    38.39860 eV ==== 

    |psi|^2 = 0.001
==== e(  28) =    39.33716 eV ==== 

    |psi|^2 = 0.002
==== e(  29) =    39.77858 eV ==== 

    |psi|^2 = 0.002
==== e(  30) =    40.03682 eV ==== 

    |psi|^2 = 0.003
==== e(  31) =    41.42349 eV ==== 

    |psi|^2 = 0.000
==== e(  32) =    42.74718 eV ==== 

    |psi|^2 = 0.001
==== e(  33) =    44.68543 eV ==== 

    |psi|^2 = 0.001
==== e(  34) =    45.46684 eV ==== 

    |psi|^2 = 0.000
==== e(  35) =    46.05865 eV ==== 

    |psi|^2 = 0.000
==== e(  36) =    46.27599 eV ==== 

    |psi|^2 = 0.000

 k =  -0.2500000000  0.4166666667 -0.2500000000
==== e(   1) =    -4.50208 eV ==== 
     psi = 0.361*[#   1]+0.361*[#   5]+0.046*[#   2]+0.046*[#   3]+0.046*[#   4]
          +0.046*[#   6]+0.046*[#   7]+0.046*[#   8]
    |psi|^2 = 0.995
==== e(   2) =     1.34268 eV ==== 
     psi = 0.156*[#   1]+0.156*[#   5]+0.113*[#   2]+0.113*[#   3]+0.113*[#   4]
          +0.113*[#   6]+0.113*[#   7]+0.113*[#   8]
    |psi|^2 = 0.988
==== e(   3) =     4.89327 eV ==== 
     psi = 0.164*[#   2]+0.164*[#   3]+0.164*[#   4]+0.164*[#   6]+0.164*[#   7]
          +0.164*[#   8]
    |psi|^2 = 0.985
==== e(   4) =     4.93101 eV ==== 
     psi = 0.149*[#   2]+0.149*[#   3]+0.149*[#   4]+0.149*[#   6]+0.149*[#   7]
          +0.149*[#   8]+0.046*[#   1]+0.046*[#   5]
    |psi|^2 = 0.985
==== e(   5) =     8.50887 eV ==== 
     psi = 0.211*[#   1]+0.211*[#   5]+0.082*[#   2]+0.082*[#   3]+0.082*[#   4]
          +0.082*[#   6]+0.082*[#   7]+0.082*[#   8]
    |psi|^2 = 0.913
==== e(   6) =     9.51106 eV ==== 
     psi = 0.131*[#   2]+0.131*[#   3]+0.131*[#   4]+0.131*[#   6]+0.131*[#   7]
          +0.131*[#   8]+0.035*[#   1]+0.035*[#   5]
    |psi|^2 = 0.856
==== e(   7) =    10.30377 eV ==== 
     psi = 0.136*[#   2]+0.136*[#   3]+0.136*[#   4]+0.136*[#   6]+0.136*[#   7]
          +0.136*[#   8]
    |psi|^2 = 0.814
==== e(   8) =    12.18771 eV ==== 
     psi = 0.058*[#   1]+0.058*[#   5]+0.041*[#   2]+0.041*[#   3]+0.041*[#   4]
          +0.041*[#   6]+0.041*[#   7]+0.041*[#   8]
    |psi|^2 = 0.365
==== e(   9) =    14.73898 eV ==== 
     psi = 0.012*[#   2]+0.012*[#   3]+0.012*[#   4]+0.012*[#   6]+0.012*[#   7]
          +0.012*[#   8]
    |psi|^2 = 0.074
==== e(  10) =    14.87211 eV ==== 
     psi = 0.068*[#   1]+0.068*[#   5]+0.054*[#   2]+0.054*[#   3]+0.054*[#   4]
          +0.054*[#   6]+0.054*[#   7]+0.054*[#   8]
    |psi|^2 = 0.458
==== e(  11) =    15.54436 eV ==== 
     psi = 0.033*[#   1]+0.033*[#   5]+0.008*[#   2]+0.008*[#   3]+0.008*[#   4]
          +0.008*[#   6]+0.008*[#   7]+0.008*[#   8]
    |psi|^2 = 0.115
==== e(  12) =    19.30035 eV ==== 
     psi = 0.014*[#   1]+0.014*[#   5]+0.008*[#   2]+0.008*[#   3]+0.008*[#   4]
          +0.008*[#   6]+0.008*[#   7]+0.008*[#   8]
    |psi|^2 = 0.077
==== e(  13) =    20.40289 eV ==== 
     psi = 0.012*[#   2]+0.012*[#   3]+0.012*[#   4]+0.012*[#   6]+0.012*[#   7]
          +0.012*[#   8]
    |psi|^2 = 0.071
==== e(  14) =    21.63375 eV ==== 
     psi = 0.008*[#   2]+0.008*[#   3]+0.008*[#   4]+0.008*[#   6]+0.008*[#   7]
          +0.008*[#   8]+0.004*[#   1]+0.004*[#   5]
    |psi|^2 = 0.056
==== e(  15) =    22.80437 eV ==== 
     psi = 0.001*[#   2]+0.001*[#   3]+0.001*[#   4]+0.001*[#   6]+0.001*[#   7]
          +0.001*[#   8]
    |psi|^2 = 0.008
==== e(  16) =    23.48042 eV ==== 
     psi = 0.009*[#   2]+0.009*[#   3]+0.009*[#   4]+0.009*[#   6]+0.009*[#   7]
          +0.009*[#   8]+0.005*[#   1]+0.005*[#   5]
    |psi|^2 = 0.067
==== e(  17) =    24.53998 eV ==== 
     psi = 0.009*[#   2]+0.009*[#   3]+0.009*[#   4]+0.009*[#   6]+0.009*[#   7]
          +0.009*[#   8]+0.001*[#   1]+0.001*[#   5]
    |psi|^2 = 0.055
==== e(  18) =    27.97661 eV ==== 
     psi = 0.001*[#   1]+0.001*[#   5]
    |psi|^2 = 0.005
==== e(  19) =    29.00408 eV ==== 
     psi = 0.002*[#   2]+0.002*[#   3]+0.002*[#   4]+0.002*[#   6]+0.002*[#   7]
          +0.002*[#   8]
    |psi|^2 = 0.012
==== e(  20) =    29.81982 eV ==== 
     psi = 0.002*[#   2]+0.002*[#   3]+0.002*[#   4]+0.002*[#   6]+0.002*[#   7]
          +0.002*[#   8]
    |psi|^2 = 0.014
==== e(  21) =    32.15283 eV ==== 
     psi = 0.004*[#   1]+0.004*[#   5]+0.002*[#   2]+0.002*[#   3]+0.002*[#   4]
          +0.002*[#   6]+0.002*[#   7]+0.002*[#   8]
    |psi|^2 = 0.021
==== e(  22) =    32.19867 eV ==== 
     psi = 0.002*[#   2]+0.002*[#   3]+0.002*[#   4]+0.002*[#   6]+0.002*[#   7]
          +0.002*[#   8]
    |psi|^2 = 0.013
==== e(  23) =    33.52172 eV ==== 
     psi = 0.005*[#   2]+0.005*[#   3]+0.005*[#   4]+0.005*[#   6]+0.005*[#   7]
          +0.005*[#   8]
    |psi|^2 = 0.029
==== e(  24) =    36.06269 eV ==== 

    |psi|^2 = 0.002
==== e(  25) =    36.30945 eV ==== 

    |psi|^2 = 0.006
==== e(  26) =    36.73718 eV ==== 

    |psi|^2 = 0.002
==== e(  27) =    37.49153 eV ==== 

    |psi|^2 = 0.001
==== e(  28) =    38.07613 eV ==== 

    |psi|^2 = 0.001
==== e(  29) =    38.75123 eV ==== 

    |psi|^2 = 0.004
==== e(  30) =    39.70124 eV ==== 

    |psi|^2 = 0.001
==== e(  31) =    41.03573 eV ==== 

    |psi|^2 = 0.000
==== e(  32) =    43.10043 eV ==== 

    |psi|^2 = 0.000
==== e(  33) =    44.36236 eV ==== 

    |psi|^2 = 0.001
==== e(  34) =    44.80042 eV ==== 

    |psi|^2 = 0.001
==== e(  35) =    45.08270 eV ==== 

    |psi|^2 = 0.000
==== e(  36) =    45.59728 eV ==== 

    |psi|^2 = 0.001

 k =  -0.3333333333  0.5000000000 -0.3333333333
==== e(   1) =    -3.87608 eV ==== 
     psi = 0.357*[#   1]+0.357*[#   5]+0.047*[#   2]+0.047*[#   3]+0.047*[#   4]
          +0.047*[#   6]+0.047*[#   7]+0.047*[#   8]
    |psi|^2 = 0.996
==== e(   2) =     0.11135 eV ==== 
     psi = 0.152*[#   1]+0.152*[#   5]+0.114*[#   2]+0.114*[#   3]+0.114*[#   4]
          +0.114*[#   6]+0.114*[#   7]+0.114*[#   8]
    |psi|^2 = 0.988
==== e(   3) =     4.63435 eV ==== 
     psi = 0.149*[#   2]+0.149*[#   3]+0.149*[#   4]+0.149*[#   6]+0.149*[#   7]
          +0.149*[#   8]+0.047*[#   1]+0.047*[#   5]
    |psi|^2 = 0.987
==== e(   4) =     4.80338 eV ==== 
     psi = 0.164*[#   2]+0.164*[#   3]+0.164*[#   4]+0.164*[#   6]+0.164*[#   7]
          +0.164*[#   8]
    |psi|^2 = 0.987
==== e(   5) =     8.34339 eV ==== 
     psi = 0.249*[#   1]+0.249*[#   5]+0.068*[#   2]+0.068*[#   3]+0.068*[#   4]
          +0.068*[#   6]+0.068*[#   7]+0.068*[#   8]
    |psi|^2 = 0.904
==== e(   6) =     9.47835 eV ==== 
     psi = 0.123*[#   2]+0.123*[#   3]+0.123*[#   4]+0.123*[#   6]+0.123*[#   7]
          +0.123*[#   8]+0.022*[#   1]+0.022*[#   5]
    |psi|^2 = 0.785
==== e(   7) =    10.10823 eV ==== 
     psi = 0.128*[#   2]+0.128*[#   3]+0.128*[#   4]+0.128*[#   6]+0.128*[#   7]
          +0.128*[#   8]
    |psi|^2 = 0.770
==== e(   8) =    13.23708 eV ==== 
     psi = 0.049*[#   1]+0.049*[#   5]+0.046*[#   2]+0.046*[#   3]+0.046*[#   4]
          +0.046*[#   6]+0.046*[#   7]+0.046*[#   8]
    |psi|^2 = 0.371
==== e(   9) =    14.94602 eV ==== 
     psi = 0.009*[#   2]+0.009*[#   3]+0.009*[#   4]+0.009*[#   6]+0.009*[#   7]
          +0.009*[#   8]+0.005*[#   1]+0.005*[#   5]
    |psi|^2 = 0.064
==== e(  10) =    15.92762 eV ==== 
     psi = 0.013*[#   2]+0.013*[#   3]+0.013*[#   4]+0.013*[#   6]+0.013*[#   7]
          +0.013*[#   8]
    |psi|^2 = 0.078
==== e(  11) =    16.70264 eV ==== 
     psi = 0.064*[#   1]+0.064*[#   5]+0.041*[#   2]+0.041*[#   3]+0.041*[#   4]
          +0.041*[#   6]+0.041*[#   7]+0.041*[#   8]
    |psi|^2 = 0.372
==== e(  12) =    18.82339 eV ==== 
     psi = 0.019*[#   2]+0.019*[#   3]+0.019*[#   4]+0.019*[#   6]+0.019*[#   7]
          +0.019*[#   8]
    |psi|^2 = 0.113
==== e(  13) =    19.47059 eV ==== 
     psi = 0.033*[#   2]+0.033*[#   3]+0.033*[#   4]+0.033*[#   6]+0.033*[#   7]
          +0.033*[#   8]+0.030*[#   1]+0.030*[#   5]
    |psi|^2 = 0.258
==== e(  14) =    21.36127 eV ==== 
     psi = 0.017*[#   2]+0.017*[#   3]+0.017*[#   4]+0.017*[#   6]+0.017*[#   7]
          +0.017*[#   8]+0.009*[#   1]+0.009*[#   5]
    |psi|^2 = 0.121
==== e(  15) =    23.15664 eV ==== 
     psi = 0.009*[#   2]+0.009*[#   3]+0.009*[#   4]+0.009*[#   6]+0.009*[#   7]
          +0.009*[#   8]+0.008*[#   1]+0.008*[#   5]
    |psi|^2 = 0.071
==== e(  16) =    24.38784 eV ==== 

    |psi|^2 = 0.001
==== e(  17) =    25.65806 eV ==== 

    |psi|^2 = 0.005
==== e(  18) =    28.97826 eV ==== 
     psi = 0.003*[#   1]+0.003*[#   5]+0.002*[#   2]+0.002*[#   3]+0.002*[#   4]
          +0.002*[#   6]+0.002*[#   7]+0.002*[#   8]
    |psi|^2 = 0.015
==== e(  19) =    29.02913 eV ==== 
     psi = 0.002*[#   2]+0.002*[#   3]+0.002*[#   4]+0.002*[#   6]+0.002*[#   7]
          +0.002*[#   8]
    |psi|^2 = 0.012
==== e(  20) =    29.87422 eV ==== 
     psi = 0.003*[#   1]+0.003*[#   5]+0.002*[#   2]+0.002*[#   3]+0.002*[#   4]
          +0.002*[#   6]+0.002*[#   7]+0.002*[#   8]
    |psi|^2 = 0.015
==== e(  21) =    30.29495 eV ==== 

    |psi|^2 = 0.003
==== e(  22) =    31.50625 eV ==== 
     psi = 0.003*[#   2]+0.003*[#   3]+0.003*[#   4]+0.003*[#   6]+0.003*[#   7]
          +0.003*[#   8]
    |psi|^2 = 0.019
==== e(  23) =    33.69381 eV ==== 
     psi = 0.005*[#   2]+0.005*[#   3]+0.005*[#   4]+0.005*[#   6]+0.005*[#   7]
          +0.005*[#   8]
    |psi|^2 = 0.027
==== e(  24) =    34.37339 eV ==== 
     psi = 0.001*[#   2]+0.001*[#   3]+0.001*[#   4]+0.001*[#   6]+0.001*[#   7]
          +0.001*[#   8]
    |psi|^2 = 0.009
==== e(  25) =    34.62156 eV ==== 
     psi = 0.002*[#   2]+0.002*[#   3]+0.002*[#   4]+0.002*[#   6]+0.002*[#   7]
          +0.002*[#   8]
    |psi|^2 = 0.012
==== e(  26) =    36.32065 eV ==== 

    |psi|^2 = 0.003
==== e(  27) =    37.08750 eV ==== 

    |psi|^2 = 0.000
==== e(  28) =    37.87138 eV ==== 

    |psi|^2 = 0.003
==== e(  29) =    38.18547 eV ==== 

    |psi|^2 = 0.000
==== e(  30) =    39.36843 eV ==== 

    |psi|^2 = 0.001
==== e(  31) =    40.29337 eV ==== 

    |psi|^2 = 0.000
==== e(  32) =    41.11811 eV ==== 

    |psi|^2 = 0.002
==== e(  33) =    43.71054 eV ==== 

    |psi|^2 = 0.001
==== e(  34) =    44.61232 eV ==== 

    |psi|^2 = 0.000
==== e(  35) =    45.00810 eV ==== 

    |psi|^2 = 0.001
==== e(  36) =    46.96101 eV ==== 

    |psi|^2 = 0.001

 k =   0.5833333333 -0.4166666667  0.5833333333
==== e(   1) =    -3.38485 eV ==== 
     psi = 0.377*[#   1]+0.377*[#   5]+0.041*[#   2]+0.041*[#   3]+0.041*[#   4]
          +0.041*[#   6]+0.041*[#   7]+0.041*[#   8]
    |psi|^2 = 0.997
==== e(   2) =    -0.65925 eV ==== 
     psi = 0.129*[#   1]+0.129*[#   5]+0.122*[#   2]+0.122*[#   3]+0.122*[#   4]
          +0.122*[#   6]+0.122*[#   7]+0.122*[#   8]
    |psi|^2 = 0.987
==== e(   3) =     4.42903 eV ==== 
     psi = 0.149*[#   2]+0.149*[#   3]+0.149*[#   4]+0.149*[#   6]+0.149*[#   7]
          +0.149*[#   8]+0.047*[#   1]+0.047*[#   5]
    |psi|^2 = 0.988
==== e(   4) =     4.83437 eV ==== 
     psi = 0.165*[#   2]+0.165*[#   3]+0.165*[#   4]+0.165*[#   6]+0.165*[#   7]
          +0.165*[#   8]
    |psi|^2 = 0.988
==== e(   5) =     8.26328 eV ==== 
     psi = 0.268*[#   1]+0.268*[#   5]+0.061*[#   2]+0.061*[#   3]+0.061*[#   4]
          +0.061*[#   6]+0.061*[#   7]+0.061*[#   8]
    |psi|^2 = 0.901
==== e(   6) =     9.48011 eV ==== 
     psi = 0.121*[#   2]+0.121*[#   3]+0.121*[#   4]+0.121*[#   6]+0.121*[#   7]
          +0.121*[#   8]+0.018*[#   1]+0.018*[#   5]
    |psi|^2 = 0.760
==== e(   7) =     9.90817 eV ==== 
     psi = 0.126*[#   2]+0.126*[#   3]+0.126*[#   4]+0.126*[#   6]+0.126*[#   7]
          +0.126*[#   8]
    |psi|^2 = 0.756
==== e(   8) =    14.13967 eV ==== 
     psi = 0.039*[#   2]+0.039*[#   3]+0.039*[#   4]+0.039*[#   6]+0.039*[#   7]
          +0.039*[#   8]+0.036*[#   1]+0.036*[#   5]
    |psi|^2 = 0.304
==== e(   9) =    15.25925 eV ==== 
     psi = 0.009*[#   1]+0.009*[#   5]+0.006*[#   2]+0.006*[#   3]+0.006*[#   4]
          +0.006*[#   6]+0.006*[#   7]+0.006*[#   8]
    |psi|^2 = 0.056
==== e(  10) =    16.73176 eV ==== 
     psi = 0.006*[#   2]+0.006*[#   3]+0.006*[#   4]+0.006*[#   6]+0.006*[#   7]
          +0.006*[#   8]
    |psi|^2 = 0.037
==== e(  11) =    17.64227 eV ==== 
     psi = 0.020*[#   1]+0.020*[#   5]+0.014*[#   2]+0.014*[#   3]+0.014*[#   4]
          +0.014*[#   6]+0.014*[#   7]+0.014*[#   8]
    |psi|^2 = 0.126
==== e(  12) =    17.71762 eV ==== 
     psi = 0.028*[#   2]+0.028*[#   3]+0.028*[#   4]+0.028*[#   6]+0.028*[#   7]
          +0.028*[#   8]
    |psi|^2 = 0.166
==== e(  13) =    18.54083 eV ==== 
     psi = 0.049*[#   1]+0.049*[#   5]+0.046*[#   2]+0.046*[#   3]+0.046*[#   4]
          +0.046*[#   6]+0.046*[#   7]+0.046*[#   8]
    |psi|^2 = 0.374
==== e(  14) =    20.21362 eV ==== 
     psi = 0.056*[#   2]+0.056*[#   3]+0.056*[#   4]+0.056*[#   6]+0.056*[#   7]
          +0.056*[#   8]+0.033*[#   1]+0.033*[#   5]
    |psi|^2 = 0.403
==== e(  15) =    24.93146 eV ==== 
     psi = 0.007*[#   1]+0.007*[#   5]+0.001*[#   2]+0.001*[#   3]+0.001*[#   4]
          +0.001*[#   6]+0.001*[#   7]+0.001*[#   8]
    |psi|^2 = 0.022
==== e(  16) =    26.53514 eV ==== 
     psi = 0.005*[#   1]+0.005*[#   5]+0.001*[#   2]+0.001*[#   3]+0.001*[#   4]
          +0.001*[#   6]+0.001*[#   7]+0.001*[#   8]
    |psi|^2 = 0.018
==== e(  17) =    26.54347 eV ==== 

    |psi|^2 = 0.002
==== e(  18) =    27.62800 eV ==== 

    |psi|^2 = 0.007
==== e(  19) =    28.14838 eV ==== 

    |psi|^2 = 0.006
==== e(  20) =    28.56202 eV ==== 
     psi = 0.001*[#   2]+0.001*[#   3]+0.001*[#   4]+0.001*[#   6]+0.001*[#   7]
          +0.001*[#   8]
    |psi|^2 = 0.009
==== e(  21) =    31.63894 eV ==== 
     psi = 0.003*[#   2]+0.003*[#   3]+0.003*[#   4]+0.003*[#   6]+0.003*[#   7]
          +0.003*[#   8]
    |psi|^2 = 0.019
==== e(  22) =    31.97920 eV ==== 

    |psi|^2 = 0.002
==== e(  23) =    32.28000 eV ==== 
     psi = 0.001*[#   2]+0.001*[#   3]+0.001*[#   4]+0.001*[#   6]+0.001*[#   7]
          +0.001*[#   8]
    |psi|^2 = 0.008
==== e(  24) =    33.85584 eV ==== 
     psi = 0.005*[#   2]+0.005*[#   3]+0.005*[#   4]+0.005*[#   6]+0.005*[#   7]
          +0.005*[#   8]
    |psi|^2 = 0.031
==== e(  25) =    34.18177 eV ==== 
     psi = 0.003*[#   2]+0.003*[#   3]+0.003*[#   4]+0.003*[#   6]+0.003*[#   7]
          +0.003*[#   8]
    |psi|^2 = 0.019
==== e(  26) =    35.24422 eV ==== 

    |psi|^2 = 0.001
==== e(  27) =    37.04588 eV ==== 

    |psi|^2 = 0.001
==== e(  28) =    37.17619 eV ==== 

    |psi|^2 = 0.002
==== e(  29) =    38.48935 eV ==== 

    |psi|^2 = 0.000
==== e(  30) =    39.25984 eV ==== 

    |psi|^2 = 0.001
==== e(  31) =    39.68082 eV ==== 

    |psi|^2 = 0.000
==== e(  32) =    40.59656 eV ==== 

    |psi|^2 = 0.003
==== e(  33) =    43.27945 eV ==== 

    |psi|^2 = 0.001
==== e(  34) =    44.09386 eV ==== 

    |psi|^2 = 0.000
==== e(  35) =    45.06015 eV ==== 

    |psi|^2 = 0.001
==== e(  36) =    47.01133 eV ==== 

    |psi|^2 = 0.001

 k =   0.5000000000 -0.3333333333  0.5000000000
==== e(   1) =    -3.50583 eV ==== 
     psi = 0.370*[#   1]+0.370*[#   5]+0.043*[#   2]+0.043*[#   3]+0.043*[#   4]
          +0.043*[#   6]+0.043*[#   7]+0.043*[#   8]
    |psi|^2 = 0.996
==== e(   2) =    -0.48133 eV ==== 
     psi = 0.137*[#   1]+0.137*[#   5]+0.119*[#   2]+0.119*[#   3]+0.119*[#   4]
          +0.119*[#   6]+0.119*[#   7]+0.119*[#   8]
    |psi|^2 = 0.988
==== e(   3) =     4.33344 eV ==== 
     psi = 0.150*[#   2]+0.150*[#   3]+0.150*[#   4]+0.150*[#   6]+0.150*[#   7]
          +0.150*[#   8]+0.044*[#   1]+0.044*[#   5]
    |psi|^2 = 0.988
==== e(   4) =     4.97768 eV ==== 
     psi = 0.165*[#   2]+0.165*[#   3]+0.165*[#   4]+0.165*[#   6]+0.165*[#   7]
          +0.165*[#   8]
    |psi|^2 = 0.988
==== e(   5) =     8.29037 eV ==== 
     psi = 0.272*[#   1]+0.272*[#   5]+0.060*[#   2]+0.060*[#   3]+0.060*[#   4]
          +0.060*[#   6]+0.060*[#   7]+0.060*[#   8]
    |psi|^2 = 0.906
==== e(   6) =     9.59670 eV ==== 
     psi = 0.122*[#   2]+0.122*[#   3]+0.122*[#   4]+0.122*[#   6]+0.122*[#   7]
          +0.122*[#   8]+0.014*[#   1]+0.014*[#   5]
    |psi|^2 = 0.757
==== e(   7) =     9.79698 eV ==== 
     psi = 0.127*[#   2]+0.127*[#   3]+0.127*[#   4]+0.127*[#   6]+0.127*[#   7]
          +0.127*[#   8]
    |psi|^2 = 0.762
==== e(   8) =    14.24808 eV ==== 
     psi = 0.038*[#   2]+0.038*[#   3]+0.038*[#   4]+0.038*[#   6]+0.038*[#   7]
          +0.038*[#   8]+0.037*[#   1]+0.037*[#   5]
    |psi|^2 = 0.305
==== e(   9) =    15.17768 eV ==== 
     psi = 0.019*[#   2]+0.019*[#   3]+0.019*[#   4]+0.019*[#   6]+0.019*[#   7]
          +0.019*[#   8]
    |psi|^2 = 0.114
==== e(  10) =    15.70856 eV ==== 
     psi = 0.022*[#   1]+0.022*[#   5]+0.005*[#   2]+0.005*[#   3]+0.005*[#   4]
          +0.005*[#   6]+0.005*[#   7]+0.005*[#   8]
    |psi|^2 = 0.076
==== e(  11) =    17.38888 eV ==== 
     psi = 0.033*[#   2]+0.033*[#   3]+0.033*[#   4]+0.033*[#   6]+0.033*[#   7]
          +0.033*[#   8]+0.021*[#   1]+0.021*[#   5]
    |psi|^2 = 0.239
==== e(  12) =    18.27375 eV ==== 
     psi = 0.028*[#   1]+0.028*[#   5]+0.021*[#   2]+0.021*[#   3]+0.021*[#   4]
          +0.021*[#   6]+0.021*[#   7]+0.021*[#   8]
    |psi|^2 = 0.184
==== e(  13) =    19.36893 eV ==== 
     psi = 0.014*[#   2]+0.014*[#   3]+0.014*[#   4]+0.014*[#   6]+0.014*[#   7]
          +0.014*[#   8]
    |psi|^2 = 0.084
==== e(  14) =    20.21143 eV ==== 
     psi = 0.062*[#   2]+0.062*[#   3]+0.062*[#   4]+0.062*[#   6]+0.062*[#   7]
          +0.062*[#   8]+0.041*[#   1]+0.041*[#   5]
    |psi|^2 = 0.457
==== e(  15) =    24.04351 eV ==== 
     psi = 0.007*[#   1]+0.007*[#   5]+0.001*[#   2]+0.001*[#   3]+0.001*[#   4]
          +0.001*[#   6]+0.001*[#   7]+0.001*[#   8]
    |psi|^2 = 0.020
==== e(  16) =    25.78535 eV ==== 

    |psi|^2 = 0.004
==== e(  17) =    27.15222 eV ==== 
     psi = 0.001*[#   2]+0.001*[#   3]+0.001*[#   4]+0.001*[#   6]+0.001*[#   7]
          +0.001*[#   8]
    |psi|^2 = 0.006
==== e(  18) =    27.61054 eV ==== 
     psi = 0.006*[#   1]+0.006*[#   5]+0.002*[#   2]+0.002*[#   3]+0.002*[#   4]
          +0.002*[#   6]+0.002*[#   7]+0.002*[#   8]
    |psi|^2 = 0.022
==== e(  19) =    28.55113 eV ==== 

    |psi|^2 = 0.003
==== e(  20) =    28.98438 eV ==== 
     psi = 0.002*[#   2]+0.002*[#   3]+0.002*[#   4]+0.002*[#   6]+0.002*[#   7]
          +0.002*[#   8]
    |psi|^2 = 0.014
==== e(  21) =    31.42776 eV ==== 
     psi = 0.002*[#   2]+0.002*[#   3]+0.002*[#   4]+0.002*[#   6]+0.002*[#   7]
          +0.002*[#   8]
    |psi|^2 = 0.013
==== e(  22) =    31.49265 eV ==== 

    |psi|^2 = 0.002
==== e(  23) =    32.96842 eV ==== 
     psi = 0.001*[#   2]+0.001*[#   3]+0.001*[#   4]+0.001*[#   6]+0.001*[#   7]
          +0.001*[#   8]
    |psi|^2 = 0.008
==== e(  24) =    33.68248 eV ==== 
     psi = 0.004*[#   2]+0.004*[#   3]+0.004*[#   4]+0.004*[#   6]+0.004*[#   7]
          +0.004*[#   8]
    |psi|^2 = 0.026
==== e(  25) =    34.07744 eV ==== 
     psi = 0.004*[#   2]+0.004*[#   3]+0.004*[#   4]+0.004*[#   6]+0.004*[#   7]
          +0.004*[#   8]
    |psi|^2 = 0.024
==== e(  26) =    35.68370 eV ==== 

    |psi|^2 = 0.002
==== e(  27) =    37.02117 eV ==== 

    |psi|^2 = 0.000
==== e(  28) =    37.29622 eV ==== 

    |psi|^2 = 0.002
==== e(  29) =    38.58289 eV ==== 

    |psi|^2 = 0.001
==== e(  30) =    39.45510 eV ==== 

    |psi|^2 = 0.000
==== e(  31) =    39.70744 eV ==== 

    |psi|^2 = 0.001
==== e(  32) =    40.60638 eV ==== 

    |psi|^2 = 0.003
==== e(  33) =    43.34497 eV ==== 

    |psi|^2 = 0.001
==== e(  34) =    44.18334 eV ==== 

    |psi|^2 = 0.000
==== e(  35) =    45.37023 eV ==== 

    |psi|^2 = 0.001
==== e(  36) =    46.76440 eV ==== 

    |psi|^2 = 0.000

 k =   0.4166666667 -0.2500000000  0.4166666667
==== e(   1) =    -4.08817 eV ==== 
     psi = 0.356*[#   1]+0.356*[#   5]+0.047*[#   2]+0.047*[#   3]+0.047*[#   4]
          +0.047*[#   6]+0.047*[#   7]+0.047*[#   8]
    |psi|^2 = 0.996
==== e(   2) =     0.49191 eV ==== 
     psi = 0.155*[#   1]+0.155*[#   5]+0.113*[#   2]+0.113*[#   3]+0.113*[#   4]
          +0.113*[#   6]+0.113*[#   7]+0.113*[#   8]
    |psi|^2 = 0.989
==== e(   3) =     4.36062 eV ==== 
     psi = 0.151*[#   2]+0.151*[#   3]+0.151*[#   4]+0.151*[#   6]+0.151*[#   7]
          +0.151*[#   8]+0.041*[#   1]+0.041*[#   5]
    |psi|^2 = 0.987
==== e(   4) =     5.21770 eV ==== 
     psi = 0.164*[#   2]+0.164*[#   3]+0.164*[#   4]+0.164*[#   6]+0.164*[#   7]
          +0.164*[#   8]
    |psi|^2 = 0.986
==== e(   5) =     8.42348 eV ==== 
     psi = 0.258*[#   1]+0.258*[#   5]+0.067*[#   2]+0.067*[#   3]+0.067*[#   4]
          +0.067*[#   6]+0.067*[#   7]+0.067*[#   8]
    |psi|^2 = 0.917
==== e(   6) =     9.76475 eV ==== 
     psi = 0.133*[#   2]+0.133*[#   3]+0.133*[#   4]+0.133*[#   6]+0.133*[#   7]
          +0.133*[#   8]
    |psi|^2 = 0.798
==== e(   7) =     9.80637 eV ==== 
     psi = 0.125*[#   2]+0.125*[#   3]+0.125*[#   4]+0.125*[#   6]+0.125*[#   7]
          +0.125*[#   8]+0.011*[#   1]+0.011*[#   5]
    |psi|^2 = 0.773
==== e(   8) =    13.70488 eV ==== 
     psi = 0.077*[#   1]+0.077*[#   5]+0.058*[#   2]+0.058*[#   3]+0.058*[#   4]
          +0.058*[#   6]+0.058*[#   7]+0.058*[#   8]
    |psi|^2 = 0.503
==== e(   9) =    13.79594 eV ==== 
     psi = 0.019*[#   2]+0.019*[#   3]+0.019*[#   4]+0.019*[#   6]+0.019*[#   7]
          +0.019*[#   8]
    |psi|^2 = 0.111
==== e(  10) =    15.34158 eV ==== 
     psi = 0.009*[#   1]+0.009*[#   5]+0.001*[#   2]+0.001*[#   3]+0.001*[#   4]
          +0.001*[#   6]+0.001*[#   7]+0.001*[#   8]
    |psi|^2 = 0.024
==== e(  11) =    16.72988 eV ==== 
     psi = 0.047*[#   1]+0.047*[#   5]+0.038*[#   2]+0.038*[#   3]+0.038*[#   4]
          +0.038*[#   6]+0.038*[#   7]+0.038*[#   8]
    |psi|^2 = 0.324
==== e(  12) =    18.86714 eV ==== 
     psi = 0.022*[#   2]+0.022*[#   3]+0.022*[#   4]+0.022*[#   6]+0.022*[#   7]
          +0.022*[#   8]+0.016*[#   1]+0.016*[#   5]
    |psi|^2 = 0.164
==== e(  13) =    20.67590 eV ==== 
     psi = 0.017*[#   2]+0.017*[#   3]+0.017*[#   4]+0.017*[#   6]+0.017*[#   7]
          +0.017*[#   8]+0.012*[#   1]+0.012*[#   5]
    |psi|^2 = 0.125
==== e(  14) =    21.21578 eV ==== 
     psi = 0.009*[#   2]+0.009*[#   3]+0.009*[#   4]+0.009*[#   6]+0.009*[#   7]
          +0.009*[#   8]
    |psi|^2 = 0.054
==== e(  15) =    22.80435 eV ==== 
     psi = 0.013*[#   2]+0.013*[#   3]+0.013*[#   4]+0.013*[#   6]+0.013*[#   7]
          +0.013*[#   8]+0.008*[#   1]+0.008*[#   5]
    |psi|^2 = 0.098
==== e(  16) =    23.72870 eV ==== 
     psi = 0.003*[#   2]+0.003*[#   3]+0.003*[#   4]+0.003*[#   6]+0.003*[#   7]
          +0.003*[#   8]+0.002*[#   1]+0.002*[#   5]
    |psi|^2 = 0.022
==== e(  17) =    25.33503 eV ==== 

    |psi|^2 = 0.005
==== e(  18) =    29.03382 eV ==== 
     psi = 0.001*[#   2]+0.001*[#   3]+0.001*[#   4]+0.001*[#   6]+0.001*[#   7]
          +0.001*[#   8]
    |psi|^2 = 0.008
==== e(  19) =    29.26520 eV ==== 
     psi = 0.002*[#   2]+0.002*[#   3]+0.002*[#   4]+0.002*[#   6]+0.002*[#   7]
          +0.002*[#   8]
    |psi|^2 = 0.010
==== e(  20) =    29.77227 eV ==== 
     psi = 0.002*[#   2]+0.002*[#   3]+0.002*[#   4]+0.002*[#   6]+0.002*[#   7]
          +0.002*[#   8]
    |psi|^2 = 0.010
==== e(  21) =    30.34046 eV ==== 
     psi = 0.005*[#   1]+0.005*[#   5]+0.002*[#   2]+0.002*[#   3]+0.002*[#   4]
          +0.002*[#   6]+0.002*[#   7]+0.002*[#   8]
    |psi|^2 = 0.022
==== e(  22) =    32.13988 eV ==== 
     psi = 0.002*[#   2]+0.002*[#   3]+0.002*[#   4]+0.002*[#   6]+0.002*[#   7]
          +0.002*[#   8]
    |psi|^2 = 0.015
==== e(  23) =    33.42927 eV ==== 
     psi = 0.004*[#   2]+0.004*[#   3]+0.004*[#   4]+0.004*[#   6]+0.004*[#   7]
          +0.004*[#   8]
    |psi|^2 = 0.023
==== e(  24) =    34.72355 eV ==== 
     psi = 0.002*[#   2]+0.002*[#   3]+0.002*[#   4]+0.002*[#   6]+0.002*[#   7]
          +0.002*[#   8]
    |psi|^2 = 0.014
==== e(  25) =    35.20764 eV ==== 
     psi = 0.001*[#   2]+0.001*[#   3]+0.001*[#   4]+0.001*[#   6]+0.001*[#   7]
          +0.001*[#   8]
    |psi|^2 = 0.006
==== e(  26) =    36.22689 eV ==== 

    |psi|^2 = 0.004
==== e(  27) =    37.53413 eV ==== 

    |psi|^2 = 0.001
==== e(  28) =    37.54298 eV ==== 

    |psi|^2 = 0.000
==== e(  29) =    38.71203 eV ==== 

    |psi|^2 = 0.001
==== e(  30) =    39.64435 eV ==== 

    |psi|^2 = 0.002
==== e(  31) =    40.41890 eV ==== 

    |psi|^2 = 0.000
==== e(  32) =    41.61504 eV ==== 

    |psi|^2 = 0.001
==== e(  33) =    43.85730 eV ==== 

    |psi|^2 = 0.001
==== e(  34) =    44.72855 eV ==== 

    |psi|^2 = 0.000
==== e(  35) =    45.92139 eV ==== 

    |psi|^2 = 0.001
==== e(  36) =    46.66503 eV ==== 

    |psi|^2 = 0.000

 k =   0.3333333333 -0.1666666667  0.3333333333
==== e(   1) =    -4.69646 eV ==== 
     psi = 0.368*[#   1]+0.368*[#   5]+0.043*[#   2]+0.043*[#   3]+0.043*[#   4]
          +0.043*[#   6]+0.043*[#   7]+0.043*[#   8]
    |psi|^2 = 0.995
==== e(   2) =     1.80747 eV ==== 
     psi = 0.152*[#   1]+0.152*[#   5]+0.114*[#   2]+0.114*[#   3]+0.114*[#   4]
          +0.114*[#   6]+0.114*[#   7]+0.114*[#   8]
    |psi|^2 = 0.987
==== e(   3) =     4.52037 eV ==== 
     psi = 0.152*[#   2]+0.152*[#   3]+0.152*[#   4]+0.152*[#   6]+0.152*[#   7]
          +0.152*[#   8]+0.036*[#   1]+0.036*[#   5]
    |psi|^2 = 0.985
==== e(   4) =     5.52829 eV ==== 
     psi = 0.164*[#   2]+0.164*[#   3]+0.164*[#   4]+0.164*[#   6]+0.164*[#   7]
          +0.164*[#   8]
    |psi|^2 = 0.982
==== e(   5) =     8.64931 eV ==== 
     psi = 0.228*[#   1]+0.228*[#   5]+0.079*[#   2]+0.079*[#   3]+0.079*[#   4]
          +0.079*[#   6]+0.079*[#   7]+0.079*[#   8]
    |psi|^2 = 0.931
==== e(   6) =     9.68340 eV ==== 
     psi = 0.146*[#   2]+0.146*[#   3]+0.146*[#   4]+0.146*[#   6]+0.146*[#   7]
          +0.146*[#   8]
    |psi|^2 = 0.878
==== e(   7) =     9.95913 eV ==== 
     psi = 0.134*[#   2]+0.134*[#   3]+0.134*[#   4]+0.134*[#   6]+0.134*[#   7]
          +0.134*[#   8]+0.014*[#   1]+0.014*[#   5]
    |psi|^2 = 0.831
==== e(   8) =    12.73656 eV ==== 
     psi = 0.114*[#   1]+0.114*[#   5]+0.062*[#   2]+0.062*[#   3]+0.062*[#   4]
          +0.062*[#   6]+0.062*[#   7]+0.062*[#   8]
    |psi|^2 = 0.602
==== e(   9) =    12.88375 eV ==== 
     psi = 0.009*[#   2]+0.009*[#   3]+0.009*[#   4]+0.009*[#   6]+0.009*[#   7]
          +0.009*[#   8]
    |psi|^2 = 0.056
==== e(  10) =    15.26337 eV ==== 
     psi = 0.054*[#   1]+0.054*[#   5]+0.038*[#   2]+0.038*[#   3]+0.038*[#   4]
          +0.038*[#   6]+0.038*[#   7]+0.038*[#   8]
    |psi|^2 = 0.337
==== e(  11) =    15.60989 eV ==== 
     psi = 0.007*[#   1]+0.007*[#   5]+0.001*[#   2]+0.001*[#   3]+0.001*[#   4]
          +0.001*[#   6]+0.001*[#   7]+0.001*[#   8]
    |psi|^2 = 0.021
==== e(  12) =    18.63749 eV ==== 
     psi = 0.011*[#   1]+0.011*[#   5]+0.004*[#   2]+0.004*[#   3]+0.004*[#   4]
          +0.004*[#   6]+0.004*[#   7]+0.004*[#   8]
    |psi|^2 = 0.049
==== e(  13) =    20.36796 eV ==== 
     psi = 0.008*[#   2]+0.008*[#   3]+0.008*[#   4]+0.008*[#   6]+0.008*[#   7]
          +0.008*[#   8]
    |psi|^2 = 0.047
==== e(  14) =    22.07129 eV ==== 
     psi = 0.004*[#   2]+0.004*[#   3]+0.004*[#   4]+0.004*[#   6]+0.004*[#   7]
          +0.004*[#   8]
    |psi|^2 = 0.023
==== e(  15) =    22.28312 eV ==== 
     psi = 0.005*[#   2]+0.005*[#   3]+0.005*[#   4]+0.005*[#   6]+0.005*[#   7]
          +0.005*[#   8]+0.003*[#   1]+0.003*[#   5]
    |psi|^2 = 0.034
==== e(  16) =    24.24778 eV ==== 
     psi = 0.016*[#   2]+0.016*[#   3]+0.016*[#   4]+0.016*[#   6]+0.016*[#   7]
          +0.016*[#   8]+0.004*[#   1]+0.004*[#   5]
    |psi|^2 = 0.106
==== e(  17) =    24.63118 eV ==== 
     psi = 0.003*[#   2]+0.003*[#   3]+0.003*[#   4]+0.003*[#   6]+0.003*[#   7]
          +0.003*[#   8]
    |psi|^2 = 0.018
==== e(  18) =    27.27379 eV ==== 
     psi = 0.002*[#   1]+0.002*[#   5]
    |psi|^2 = 0.006
==== e(  19) =    29.09015 eV ==== 
     psi = 0.002*[#   2]+0.002*[#   3]+0.002*[#   4]+0.002*[#   6]+0.002*[#   7]
          +0.002*[#   8]
    |psi|^2 = 0.012
==== e(  20) =    29.56216 eV ==== 
     psi = 0.002*[#   2]+0.002*[#   3]+0.002*[#   4]+0.002*[#   6]+0.002*[#   7]
          +0.002*[#   8]
    |psi|^2 = 0.015
==== e(  21) =    32.66939 eV ==== 
     psi = 0.004*[#   1]+0.004*[#   5]+0.003*[#   2]+0.003*[#   3]+0.003*[#   4]
          +0.003*[#   6]+0.003*[#   7]+0.003*[#   8]
    |psi|^2 = 0.024
==== e(  22) =    32.79894 eV ==== 
     psi = 0.003*[#   2]+0.003*[#   3]+0.003*[#   4]+0.003*[#   6]+0.003*[#   7]
          +0.003*[#   8]
    |psi|^2 = 0.019
==== e(  23) =    33.55498 eV ==== 
     psi = 0.002*[#   2]+0.002*[#   3]+0.002*[#   4]+0.002*[#   6]+0.002*[#   7]
          +0.002*[#   8]
    |psi|^2 = 0.014
==== e(  24) =    36.01676 eV ==== 
     psi = 0.001*[#   2]+0.001*[#   3]+0.001*[#   4]+0.001*[#   6]+0.001*[#   7]
          +0.001*[#   8]
    |psi|^2 = 0.007
==== e(  25) =    36.27216 eV ==== 

    |psi|^2 = 0.003
==== e(  26) =    37.45215 eV ==== 

    |psi|^2 = 0.000
==== e(  27) =    37.72921 eV ==== 

    |psi|^2 = 0.001
==== e(  28) =    38.37856 eV ==== 

    |psi|^2 = 0.003
==== e(  29) =    39.19390 eV ==== 

    |psi|^2 = 0.001
==== e(  30) =    40.09880 eV ==== 

    |psi|^2 = 0.003
==== e(  31) =    41.00685 eV ==== 

    |psi|^2 = 0.000
==== e(  32) =    43.58665 eV ==== 

    |psi|^2 = 0.001
==== e(  33) =    44.06161 eV ==== 

    |psi|^2 = 0.000
==== e(  34) =    45.21147 eV ==== 

    |psi|^2 = 0.000
==== e(  35) =    45.21195 eV ==== 

    |psi|^2 = 0.000
==== e(  36) =    46.21147 eV ==== 

    |psi|^2 = 0.000

 k =   0.2500000000 -0.0833333333  0.2500000000
==== e(   1) =    -5.18547 eV ==== 
     psi = 0.400*[#   1]+0.400*[#   5]+0.033*[#   2]+0.033*[#   3]+0.033*[#   4]
          +0.033*[#   6]+0.033*[#   7]+0.033*[#   8]
    |psi|^2 = 0.996
==== e(   2) =     3.26751 eV ==== 
     psi = 0.133*[#   1]+0.133*[#   5]+0.120*[#   2]+0.120*[#   3]+0.120*[#   4]
          +0.120*[#   6]+0.120*[#   7]+0.120*[#   8]
    |psi|^2 = 0.984
==== e(   3) =     4.82460 eV ==== 
     psi = 0.154*[#   2]+0.154*[#   3]+0.154*[#   4]+0.154*[#   6]+0.154*[#   7]
          +0.154*[#   8]+0.028*[#   1]+0.028*[#   5]
    |psi|^2 = 0.982
==== e(   4) =     5.85834 eV ==== 
     psi = 0.163*[#   2]+0.163*[#   3]+0.163*[#   4]+0.163*[#   6]+0.163*[#   7]
          +0.163*[#   8]
    |psi|^2 = 0.976
==== e(   5) =     8.93147 eV ==== 
     psi = 0.179*[#   1]+0.179*[#   5]+0.097*[#   2]+0.097*[#   3]+0.097*[#   4]
          +0.097*[#   6]+0.097*[#   7]+0.097*[#   8]
    |psi|^2 = 0.944
==== e(   6) =     9.38297 eV ==== 
     psi = 0.157*[#   2]+0.157*[#   3]+0.157*[#   4]+0.157*[#   6]+0.157*[#   7]
          +0.157*[#   8]
    |psi|^2 = 0.944
==== e(   7) =     9.74595 eV ==== 
     psi = 0.140*[#   2]+0.140*[#   3]+0.140*[#   4]+0.140*[#   6]+0.140*[#   7]
          +0.140*[#   8]+0.033*[#   1]+0.033*[#   5]
    |psi|^2 = 0.908
==== e(   8) =    11.95744 eV ==== 
     psi = 0.172*[#   1]+0.172*[#   5]+0.073*[#   2]+0.073*[#   3]+0.073*[#   4]
          +0.073*[#   6]+0.073*[#   7]+0.073*[#   8]
    |psi|^2 = 0.780
==== e(   9) =    12.66426 eV ==== 
     psi = 0.001*[#   2]+0.001*[#   3]+0.001*[#   4]+0.001*[#   6]+0.001*[#   7]
          +0.001*[#   8]
    |psi|^2 = 0.009
==== e(  10) =    14.15048 eV ==== 
     psi = 0.037*[#   1]+0.037*[#   5]+0.017*[#   2]+0.017*[#   3]+0.017*[#   4]
          +0.017*[#   6]+0.017*[#   7]+0.017*[#   8]
    |psi|^2 = 0.176
==== e(  11) =    15.82095 eV ==== 
     psi = 0.002*[#   2]+0.002*[#   3]+0.002*[#   4]+0.002*[#   6]+0.002*[#   7]
          +0.002*[#   8]+0.002*[#   1]+0.002*[#   5]
    |psi|^2 = 0.019
==== e(  12) =    17.34121 eV ==== 
     psi = 0.005*[#   1]+0.005*[#   5]
    |psi|^2 = 0.011
==== e(  13) =    19.07316 eV ==== 
     psi = 0.003*[#   2]+0.003*[#   3]+0.003*[#   4]+0.003*[#   6]+0.003*[#   7]
          +0.003*[#   8]
    |psi|^2 = 0.021
==== e(  14) =    20.72405 eV ==== 
     psi = 0.002*[#   2]+0.002*[#   3]+0.002*[#   4]+0.002*[#   6]+0.002*[#   7]
          +0.002*[#   8]
    |psi|^2 = 0.013
==== e(  15) =    23.94797 eV ==== 
     psi = 0.006*[#   2]+0.006*[#   3]+0.006*[#   4]+0.006*[#   6]+0.006*[#   7]
          +0.006*[#   8]+0.003*[#   1]+0.003*[#   5]
    |psi|^2 = 0.044
==== e(  16) =    24.41261 eV ==== 
     psi = 0.005*[#   2]+0.005*[#   3]+0.005*[#   4]+0.005*[#   6]+0.005*[#   7]
          +0.005*[#   8]+0.002*[#   1]+0.002*[#   5]
    |psi|^2 = 0.033
==== e(  17) =    26.37816 eV ==== 
     psi = 0.003*[#   2]+0.003*[#   3]+0.003*[#   4]+0.003*[#   6]+0.003*[#   7]
          +0.003*[#   8]
    |psi|^2 = 0.018
==== e(  18) =    26.83606 eV ==== 
     psi = 0.007*[#   2]+0.007*[#   3]+0.007*[#   4]+0.007*[#   6]+0.007*[#   7]
          +0.007*[#   8]+0.002*[#   1]+0.002*[#   5]
    |psi|^2 = 0.043
==== e(  19) =    28.82461 eV ==== 
     psi = 0.002*[#   2]+0.002*[#   3]+0.002*[#   4]+0.002*[#   6]+0.002*[#   7]
          +0.002*[#   8]
    |psi|^2 = 0.014
==== e(  20) =    29.48158 eV ==== 
     psi = 0.002*[#   2]+0.002*[#   3]+0.002*[#   4]+0.002*[#   6]+0.002*[#   7]
          +0.002*[#   8]
    |psi|^2 = 0.012
==== e(  21) =    32.72193 eV ==== 
     psi = 0.003*[#   2]+0.003*[#   3]+0.003*[#   4]+0.003*[#   6]+0.003*[#   7]
          +0.003*[#   8]+0.002*[#   1]+0.002*[#   5]
    |psi|^2 = 0.019
==== e(  22) =    32.85875 eV ==== 
     psi = 0.003*[#   2]+0.003*[#   3]+0.003*[#   4]+0.003*[#   6]+0.003*[#   7]
          +0.003*[#   8]
    |psi|^2 = 0.019
==== e(  23) =    34.74044 eV ==== 
     psi = 0.003*[#   2]+0.003*[#   3]+0.003*[#   4]+0.003*[#   6]+0.003*[#   7]
          +0.003*[#   8]
    |psi|^2 = 0.016
==== e(  24) =    36.31522 eV ==== 

    |psi|^2 = 0.005
==== e(  25) =    36.74133 eV ==== 

    |psi|^2 = 0.000
==== e(  26) =    38.41770 eV ==== 

    |psi|^2 = 0.002
==== e(  27) =    38.76987 eV ==== 

    |psi|^2 = 0.001
==== e(  28) =    39.77399 eV ==== 

    |psi|^2 = 0.000
==== e(  29) =    39.83510 eV ==== 

    |psi|^2 = 0.001
==== e(  30) =    40.47700 eV ==== 

    |psi|^2 = 0.003
==== e(  31) =    41.62804 eV ==== 

    |psi|^2 = 0.001
==== e(  32) =    42.51777 eV ==== 

    |psi|^2 = 0.003
==== e(  33) =    44.71700 eV ==== 

    |psi|^2 = 0.000
==== e(  34) =    45.68874 eV ==== 

    |psi|^2 = 0.000
==== e(  35) =    46.00325 eV ==== 

    |psi|^2 = 0.000
==== e(  36) =    46.92393 eV ==== 

    |psi|^2 = 0.000

 k =   0.1666666667 -0.0000000000  0.1666666667
==== e(   1) =    -5.51295 eV ==== 
     psi = 0.443*[#   1]+0.443*[#   5]+0.018*[#   2]+0.018*[#   3]+0.018*[#   4]
          +0.018*[#   6]+0.018*[#   7]+0.018*[#   8]
    |psi|^2 = 0.996
==== e(   2) =     4.62195 eV ==== 
     psi = 0.130*[#   2]+0.130*[#   3]+0.130*[#   4]+0.130*[#   6]+0.130*[#   7]
          +0.130*[#   8]+0.100*[#   1]+0.100*[#   5]
    |psi|^2 = 0.977
==== e(   3) =     5.34738 eV ==== 
     psi = 0.159*[#   2]+0.159*[#   3]+0.159*[#   4]+0.159*[#   6]+0.159*[#   7]
          +0.159*[#   8]+0.012*[#   1]+0.012*[#   5]
    |psi|^2 = 0.977
==== e(   4) =     6.09432 eV ==== 
[...]

    |psi|^2 = 0.000

 k =   0.5833333333 -0.0833333333  0.9166666667
==== e(   1) =    -2.00469 eV ==== 
     psi = 0.314*[#   1]+0.314*[#   5]+0.061*[#   2]+0.061*[#   3]+0.061*[#   4]
          +0.061*[#   6]+0.061*[#   7]+0.061*[#   8]
    |psi|^2 = 0.995
==== e(   2) =    -0.94085 eV ==== 
     psi = 0.276*[#   1]+0.276*[#   5]+0.074*[#   2]+0.074*[#   3]+0.074*[#   4]
          +0.074*[#   6]+0.074*[#   7]+0.074*[#   8]
    |psi|^2 = 0.994
==== e(   3) =     2.12400 eV ==== 
     psi = 0.164*[#   2]+0.164*[#   3]+0.164*[#   4]+0.164*[#   6]+0.164*[#   7]
          +0.164*[#   8]+0.006*[#   1]+0.006*[#   5]
    |psi|^2 = 0.993
==== e(   4) =     2.90462 eV ==== 
     psi = 0.165*[#   2]+0.165*[#   3]+0.165*[#   4]+0.165*[#   6]+0.165*[#   7]
          +0.165*[#   8]+0.003*[#   1]+0.003*[#   5]
    |psi|^2 = 0.993
==== e(   5) =     9.23885 eV ==== 
     psi = 0.093*[#   2]+0.093*[#   3]+0.093*[#   4]+0.093*[#   6]+0.093*[#   7]
          +0.093*[#   8]+0.082*[#   1]+0.082*[#   5]
    |psi|^2 = 0.723
==== e(   6) =    10.50329 eV ==== 
     psi = 0.073*[#   2]+0.073*[#   3]+0.073*[#   4]+0.073*[#   6]+0.073*[#   7]
          +0.073*[#   8]+0.040*[#   1]+0.040*[#   5]
    |psi|^2 = 0.516
==== e(   7) =    11.32597 eV ==== 
     psi = 0.116*[#   1]+0.116*[#   5]+0.090*[#   2]+0.090*[#   3]+0.090*[#   4]
          +0.090*[#   6]+0.090*[#   7]+0.090*[#   8]
    |psi|^2 = 0.774
==== e(   8) =    12.71339 eV ==== 
     psi = 0.074*[#   1]+0.074*[#   5]+0.072*[#   2]+0.072*[#   3]+0.072*[#   4]
          +0.072*[#   6]+0.072*[#   7]+0.072*[#   8]
    |psi|^2 = 0.582
==== e(   9) =    15.44681 eV ==== 
     psi = 0.071*[#   2]+0.071*[#   3]+0.071*[#   4]+0.071*[#   6]+0.071*[#   7]
          +0.071*[#   8]+0.011*[#   1]+0.011*[#   5]
    |psi|^2 = 0.446
==== e(  10) =    17.33796 eV ==== 
     psi = 0.048*[#   2]+0.048*[#   3]+0.048*[#   4]+0.048*[#   6]+0.048*[#   7]
          +0.048*[#   8]+0.009*[#   1]+0.009*[#   5]
    |psi|^2 = 0.307
==== e(  11) =    18.56742 eV ==== 
     psi = 0.027*[#   1]+0.027*[#   5]+0.015*[#   2]+0.015*[#   3]+0.015*[#   4]
          +0.015*[#   6]+0.015*[#   7]+0.015*[#   8]
    |psi|^2 = 0.145
==== e(  12) =    20.52793 eV ==== 
     psi = 0.013*[#   1]+0.013*[#   2]+0.013*[#   3]+0.013*[#   4]+0.013*[#   5]
          +0.013*[#   6]+0.013*[#   7]+0.013*[#   8]
    |psi|^2 = 0.108
==== e(  13) =    21.53435 eV ==== 
     psi = 0.005*[#   1]+0.005*[#   5]+0.003*[#   2]+0.003*[#   3]+0.003*[#   4]
          +0.003*[#   6]+0.003*[#   7]+0.003*[#   8]
    |psi|^2 = 0.031
==== e(  14) =    23.21136 eV ==== 
     psi = 0.016*[#   2]+0.016*[#   3]+0.016*[#   4]+0.016*[#   6]+0.016*[#   7]
          +0.016*[#   8]+0.005*[#   1]+0.005*[#   5]
    |psi|^2 = 0.105
==== e(  15) =    23.45728 eV ==== 
     psi = 0.003*[#   2]+0.003*[#   3]+0.003*[#   4]+0.003*[#   6]+0.003*[#   7]
          +0.003*[#   8]+0.002*[#   1]+0.002*[#   5]
    |psi|^2 = 0.023
==== e(  16) =    24.43459 eV ==== 
     psi = 0.002*[#   1]+0.002*[#   5]+0.001*[#   2]+0.001*[#   3]+0.001*[#   4]
          +0.001*[#   6]+0.001*[#   7]+0.001*[#   8]
    |psi|^2 = 0.009
==== e(  17) =    25.09979 eV ==== 
     psi = 0.014*[#   2]+0.014*[#   3]+0.014*[#   4]+0.014*[#   6]+0.014*[#   7]
          +0.014*[#   8]+0.003*[#   1]+0.003*[#   5]
    |psi|^2 = 0.087
==== e(  18) =    25.72696 eV ==== 
     psi = 0.007*[#   2]+0.007*[#   3]+0.007*[#   4]+0.007*[#   6]+0.007*[#   7]
          +0.007*[#   8]+0.006*[#   1]+0.006*[#   5]
    |psi|^2 = 0.055
==== e(  19) =    26.50409 eV ==== 

    |psi|^2 = 0.005
==== e(  20) =    27.44403 eV ==== 
     psi = 0.006*[#   2]+0.006*[#   3]+0.006*[#   4]+0.006*[#   6]+0.006*[#   7]
          +0.006*[#   8]+0.002*[#   1]+0.002*[#   5]
    |psi|^2 = 0.043
==== e(  21) =    28.96338 eV ==== 
     psi = 0.002*[#   2]+0.002*[#   3]+0.002*[#   4]+0.002*[#   6]+0.002*[#   7]
          +0.002*[#   8]
    |psi|^2 = 0.012
==== e(  22) =    30.70699 eV ==== 
     psi = 0.002*[#   2]+0.002*[#   3]+0.002*[#   4]+0.002*[#   6]+0.002*[#   7]
          +0.002*[#   8]
    |psi|^2 = 0.015
==== e(  23) =    31.51115 eV ==== 

    |psi|^2 = 0.003
==== e(  24) =    33.60480 eV ==== 

    |psi|^2 = 0.002
==== e(  25) =    34.21537 eV ==== 

    |psi|^2 = 0.001
==== e(  26) =    35.12528 eV ==== 

    |psi|^2 = 0.005
==== e(  27) =    36.41165 eV ==== 

    |psi|^2 = 0.001
==== e(  28) =    37.16237 eV ==== 

    |psi|^2 = 0.003
==== e(  29) =    37.77959 eV ==== 

    |psi|^2 = 0.004
==== e(  30) =    38.61488 eV ==== 
     psi = 0.001*[#   2]+0.001*[#   3]+0.001*[#   4]+0.001*[#   6]+0.001*[#   7]
          +0.001*[#   8]
    |psi|^2 = 0.006
==== e(  31) =    41.60879 eV ==== 

    |psi|^2 = 0.003
==== e(  32) =    43.02711 eV ==== 

    |psi|^2 = 0.004
==== e(  33) =    44.35740 eV ==== 

    |psi|^2 = 0.001
==== e(  34) =    45.17223 eV ==== 

    |psi|^2 = 0.002
==== e(  35) =    45.90841 eV ==== 

    |psi|^2 = 0.000
==== e(  36) =    47.00274 eV ==== 

    |psi|^2 = 0.001

 k =   0.5000000000  0.0000000000  0.8333333333
==== e(   1) =    -2.23639 eV ==== 
     psi = 0.319*[#   1]+0.319*[#   5]+0.060*[#   2]+0.060*[#   3]+0.060*[#   4]
          +0.060*[#   6]+0.060*[#   7]+0.060*[#   8]
    |psi|^2 = 0.996
==== e(   2) =    -0.71087 eV ==== 
     psi = 0.268*[#   1]+0.268*[#   5]+0.076*[#   2]+0.076*[#   3]+0.076*[#   4]
          +0.076*[#   6]+0.076*[#   7]+0.076*[#   8]
    |psi|^2 = 0.994
==== e(   3) =     1.99903 eV ==== 
     psi = 0.163*[#   2]+0.163*[#   3]+0.163*[#   4]+0.163*[#   6]+0.163*[#   7]
          +0.163*[#   8]+0.007*[#   1]+0.007*[#   5]
    |psi|^2 = 0.993
==== e(   4) =     3.12995 eV ==== 
     psi = 0.164*[#   2]+0.164*[#   3]+0.164*[#   4]+0.164*[#   6]+0.164*[#   7]
          +0.164*[#   8]+0.004*[#   1]+0.004*[#   5]
    |psi|^2 = 0.992
==== e(   5) =     9.54075 eV ==== 
     psi = 0.099*[#   2]+0.099*[#   3]+0.099*[#   4]+0.099*[#   6]+0.099*[#   7]
          +0.099*[#   8]+0.058*[#   1]+0.058*[#   5]
    |psi|^2 = 0.707
==== e(   6) =    10.69179 eV ==== 
     psi = 0.091*[#   2]+0.091*[#   3]+0.091*[#   4]+0.091*[#   6]+0.091*[#   7]
          +0.091*[#   8]+0.042*[#   1]+0.042*[#   5]
    |psi|^2 = 0.630
==== e(   7) =    11.21620 eV ==== 
     psi = 0.114*[#   1]+0.114*[#   5]+0.066*[#   2]+0.066*[#   3]+0.066*[#   4]
          +0.066*[#   6]+0.066*[#   7]+0.066*[#   8]
    |psi|^2 = 0.622
==== e(   8) =    12.46119 eV ==== 
     psi = 0.091*[#   1]+0.091*[#   5]+0.067*[#   2]+0.067*[#   3]+0.067*[#   4]
          +0.067*[#   6]+0.067*[#   7]+0.067*[#   8]
    |psi|^2 = 0.587
==== e(   9) =    15.02655 eV ==== 
     psi = 0.082*[#   2]+0.082*[#   3]+0.082*[#   4]+0.082*[#   6]+0.082*[#   7]
          +0.082*[#   8]+0.012*[#   1]+0.012*[#   5]
    |psi|^2 = 0.516
==== e(  10) =    16.44023 eV ==== 
     psi = 0.034*[#   1]+0.034*[#   5]+0.033*[#   2]+0.033*[#   3]+0.033*[#   4]
          +0.033*[#   6]+0.033*[#   7]+0.033*[#   8]
    |psi|^2 = 0.268
==== e(  11) =    19.48587 eV ==== 
     psi = 0.026*[#   2]+0.026*[#   3]+0.026*[#   4]+0.026*[#   6]+0.026*[#   7]
          +0.026*[#   8]+0.008*[#   1]+0.008*[#   5]
    |psi|^2 = 0.173
==== e(  12) =    20.78476 eV ==== 
     psi = 0.014*[#   1]+0.014*[#   5]+0.008*[#   2]+0.008*[#   3]+0.008*[#   4]
          +0.008*[#   6]+0.008*[#   7]+0.008*[#   8]
    |psi|^2 = 0.078
==== e(  13) =    21.13363 eV ==== 
     psi = 0.004*[#   2]+0.004*[#   3]+0.004*[#   4]+0.004*[#   6]+0.004*[#   7]
          +0.004*[#   8]+0.002*[#   1]+0.002*[#   5]
    |psi|^2 = 0.028
==== e(  14) =    22.62068 eV ==== 
     psi = 0.005*[#   1]+0.005*[#   5]+0.004*[#   2]+0.004*[#   3]+0.004*[#   4]
          +0.004*[#   6]+0.004*[#   7]+0.004*[#   8]
    |psi|^2 = 0.036
==== e(  15) =    23.47125 eV ==== 
     psi = 0.023*[#   2]+0.023*[#   3]+0.023*[#   4]+0.023*[#   6]+0.023*[#   7]
          +0.023*[#   8]+0.006*[#   1]+0.006*[#   5]
    |psi|^2 = 0.148
==== e(  16) =    24.97993 eV ==== 
     psi = 0.005*[#   1]+0.005*[#   5]+0.004*[#   2]+0.004*[#   3]+0.004*[#   4]
          +0.004*[#   6]+0.004*[#   7]+0.004*[#   8]
    |psi|^2 = 0.035
==== e(  17) =    25.13969 eV ==== 
     psi = 0.001*[#   2]+0.001*[#   3]+0.001*[#   4]+0.001*[#   6]+0.001*[#   7]
          +0.001*[#   8]
    |psi|^2 = 0.008
==== e(  18) =    25.88533 eV ==== 
     psi = 0.015*[#   2]+0.015*[#   3]+0.015*[#   4]+0.015*[#   6]+0.015*[#   7]
          +0.015*[#   8]+0.006*[#   1]+0.006*[#   5]
    |psi|^2 = 0.101
==== e(  19) =    26.89844 eV ==== 
     psi = 0.002*[#   2]+0.002*[#   3]+0.002*[#   4]+0.002*[#   6]+0.002*[#   7]
          +0.002*[#   8]+0.001*[#   1]+0.001*[#   5]
    |psi|^2 = 0.014
==== e(  20) =    27.07898 eV ==== 

    |psi|^2 = 0.004
==== e(  21) =    29.11975 eV ==== 
     psi = 0.003*[#   2]+0.003*[#   3]+0.003*[#   4]+0.003*[#   6]+0.003*[#   7]
          +0.003*[#   8]+0.001*[#   1]+0.001*[#   5]
    |psi|^2 = 0.019
==== e(  22) =    31.08477 eV ==== 
     psi = 0.002*[#   2]+0.002*[#   3]+0.002*[#   4]+0.002*[#   6]+0.002*[#   7]
          +0.002*[#   8]
    |psi|^2 = 0.011
==== e(  23) =    32.03676 eV ==== 

    |psi|^2 = 0.004
==== e(  24) =    33.74432 eV ==== 

    |psi|^2 = 0.004
==== e(  25) =    33.93453 eV ==== 

    |psi|^2 = 0.002
==== e(  26) =    35.11934 eV ==== 

    |psi|^2 = 0.002
==== e(  27) =    36.13741 eV ==== 

    |psi|^2 = 0.002
==== e(  28) =    36.70468 eV ==== 

    |psi|^2 = 0.000
==== e(  29) =    38.01663 eV ==== 

    |psi|^2 = 0.002
==== e(  30) =    38.26751 eV ==== 
     psi = 0.002*[#   2]+0.002*[#   3]+0.002*[#   4]+0.002*[#   6]+0.002*[#   7]
          +0.002*[#   8]
    |psi|^2 = 0.009
==== e(  31) =    41.51451 eV ==== 

    |psi|^2 = 0.003
==== e(  32) =    43.64030 eV ==== 

    |psi|^2 = 0.002
==== e(  33) =    43.84429 eV ==== 

    |psi|^2 = 0.003
==== e(  34) =    44.85321 eV ==== 

    |psi|^2 = 0.000
==== e(  35) =    45.99501 eV ==== 

    |psi|^2 = 0.000
==== e(  36) =    46.97509 eV ==== 

    |psi|^2 = 0.001

 k =  -0.3333333333 -1.0000000000  0.0000000000
==== e(   1) =    -1.48869 eV ==== 
     psi = 0.295*[#   1]+0.295*[#   5]+0.068*[#   2]+0.068*[#   3]+0.068*[#   4]
          +0.068*[#   6]+0.068*[#   7]+0.068*[#   8]
    |psi|^2 = 0.994
==== e(   2) =    -1.48869 eV ==== 
     psi = 0.295*[#   1]+0.295*[#   5]+0.068*[#   2]+0.068*[#   3]+0.068*[#   4]
          +0.068*[#   6]+0.068*[#   7]+0.068*[#   8]
    |psi|^2 = 0.994
==== e(   3) =     2.56349 eV ==== 
     psi = 0.164*[#   2]+0.164*[#   3]+0.164*[#   4]+0.164*[#   6]+0.164*[#   7]
          +0.164*[#   8]+0.004*[#   1]+0.004*[#   5]
    |psi|^2 = 0.993
==== e(   4) =     2.56349 eV ==== 
     psi = 0.164*[#   2]+0.164*[#   3]+0.164*[#   4]+0.164*[#   6]+0.164*[#   7]
          +0.164*[#   8]+0.004*[#   1]+0.004*[#   5]
    |psi|^2 = 0.993
==== e(   5) =     8.96385 eV ==== 
     psi = 0.105*[#   1]+0.105*[#   5]+0.086*[#   2]+0.086*[#   3]+0.086*[#   4]
          +0.086*[#   6]+0.086*[#   7]+0.086*[#   8]
    |psi|^2 = 0.723
==== e(   6) =     8.96385 eV ==== 
     psi = 0.105*[#   1]+0.105*[#   5]+0.086*[#   2]+0.086*[#   3]+0.086*[#   4]
          +0.086*[#   6]+0.086*[#   7]+0.086*[#   8]
    |psi|^2 = 0.723
==== e(   7) =    12.98136 eV ==== 
     psi = 0.081*[#   2]+0.081*[#   3]+0.081*[#   4]+0.081*[#   6]+0.081*[#   7]
          +0.081*[#   8]+0.056*[#   1]+0.056*[#   5]
    |psi|^2 = 0.597
==== e(   8) =    12.98136 eV ==== 
     psi = 0.081*[#   2]+0.081*[#   3]+0.081*[#   4]+0.081*[#   6]+0.081*[#   7]
          +0.081*[#   8]+0.056*[#   1]+0.056*[#   5]
    |psi|^2 = 0.597
==== e(   9) =    16.79252 eV ==== 
     psi = 0.062*[#   2]+0.062*[#   3]+0.062*[#   4]+0.062*[#   6]+0.062*[#   7]
          +0.062*[#   8]
    |psi|^2 = 0.371
==== e(  10) =    16.79252 eV ==== 
     psi = 0.062*[#   2]+0.062*[#   3]+0.062*[#   4]+0.062*[#   6]+0.062*[#   7]
          +0.062*[#   8]
    |psi|^2 = 0.371
==== e(  11) =    19.17831 eV ==== 
     psi = 0.028*[#   1]+0.028*[#   5]+0.010*[#   2]+0.010*[#   3]+0.010*[#   4]
          +0.010*[#   6]+0.010*[#   7]+0.010*[#   8]
    |psi|^2 = 0.114
==== e(  12) =    19.17831 eV ==== 
     psi = 0.028*[#   1]+0.028*[#   5]+0.010*[#   2]+0.010*[#   3]+0.010*[#   4]
          +0.010*[#   6]+0.010*[#   7]+0.010*[#   8]
    |psi|^2 = 0.114
==== e(  13) =    22.71215 eV ==== 
     psi = 0.010*[#   2]+0.010*[#   3]+0.010*[#   4]+0.010*[#   6]+0.010*[#   7]
          +0.010*[#   8]+0.001*[#   1]+0.001*[#   5]
    |psi|^2 = 0.064
==== e(  14) =    22.71215 eV ==== 
     psi = 0.010*[#   2]+0.010*[#   3]+0.010*[#   4]+0.010*[#   6]+0.010*[#   7]
          +0.010*[#   8]+0.001*[#   1]+0.001*[#   5]
    |psi|^2 = 0.064
==== e(  15) =    23.44271 eV ==== 
     psi = 0.006*[#   1]+0.006*[#   5]+0.006*[#   2]+0.006*[#   3]+0.006*[#   4]
          +0.006*[#   6]+0.006*[#   7]+0.006*[#   8]
    |psi|^2 = 0.046
==== e(  16) =    23.44271 eV ==== 
     psi = 0.006*[#   1]+0.006*[#   5]+0.006*[#   2]+0.006*[#   3]+0.006*[#   4]
          +0.006*[#   6]+0.006*[#   7]+0.006*[#   8]
    |psi|^2 = 0.046
==== e(  17) =    25.07288 eV ==== 
     psi = 0.002*[#   1]+0.002*[#   5]+0.001*[#   2]+0.001*[#   3]+0.001*[#   4]
          +0.001*[#   6]+0.001*[#   7]+0.001*[#   8]
    |psi|^2 = 0.010
==== e(  18) =    25.07288 eV ==== 
     psi = 0.002*[#   1]+0.002*[#   5]+0.001*[#   2]+0.001*[#   3]+0.001*[#   4]
          +0.001*[#   6]+0.001*[#   7]+0.001*[#   8]
    |psi|^2 = 0.010
==== e(  19) =    27.59693 eV ==== 
     psi = 0.009*[#   2]+0.009*[#   3]+0.009*[#   4]+0.009*[#   6]+0.009*[#   7]
          +0.009*[#   8]+0.002*[#   1]+0.002*[#   5]
    |psi|^2 = 0.058
==== e(  20) =    27.59693 eV ==== 
     psi = 0.009*[#   2]+0.009*[#   3]+0.009*[#   4]+0.009*[#   6]+0.009*[#   7]
          +0.009*[#   8]+0.002*[#   1]+0.002*[#   5]
    |psi|^2 = 0.058
==== e(  21) =    29.48589 eV ==== 
     psi = 0.001*[#   1]+0.001*[#   2]+0.001*[#   3]+0.001*[#   4]+0.001*[#   5]
          +0.001*[#   6]+0.001*[#   7]+0.001*[#   8]
    |psi|^2 = 0.010
==== e(  22) =    29.48589 eV ==== 
     psi = 0.001*[#   1]+0.001*[#   2]+0.001*[#   3]+0.001*[#   4]+0.001*[#   5]
          +0.001*[#   6]+0.001*[#   7]+0.001*[#   8]
    |psi|^2 = 0.010
==== e(  23) =    31.08038 eV ==== 

    |psi|^2 = 0.001
==== e(  24) =    31.08038 eV ==== 

    |psi|^2 = 0.001
==== e(  25) =    36.14587 eV ==== 
     psi = 0.001*[#   2]+0.001*[#   3]+0.001*[#   4]+0.001*[#   6]+0.001*[#   7]
          +0.001*[#   8]
    |psi|^2 = 0.008
==== e(  26) =    36.14587 eV ==== 
     psi = 0.001*[#   2]+0.001*[#   3]+0.001*[#   4]+0.001*[#   6]+0.001*[#   7]
          +0.001*[#   8]
    |psi|^2 = 0.008
==== e(  27) =    37.08000 eV ==== 

    |psi|^2 = 0.000
==== e(  28) =    37.08000 eV ==== 

    |psi|^2 = 0.000
==== e(  29) =    38.35309 eV ==== 

    |psi|^2 = 0.006
==== e(  30) =    38.35309 eV ==== 

    |psi|^2 = 0.006
==== e(  31) =    43.09084 eV ==== 

    |psi|^2 = 0.002
==== e(  32) =    43.09084 eV ==== 

    |psi|^2 = 0.002
==== e(  33) =    43.78409 eV ==== 

    |psi|^2 = 0.002
==== e(  34) =    43.78409 eV ==== 

    |psi|^2 = 0.002
==== e(  35) =    46.67811 eV ==== 

    |psi|^2 = 0.000
==== e(  36) =    46.67811 eV ==== 

    |psi|^2 = 0.000

 k =  -0.5000000000 -1.0000000000  0.0000000000
==== e(   1) =    -1.44454 eV ==== 
     psi = 0.300*[#   1]+0.300*[#   5]+0.066*[#   2]+0.066*[#   3]+0.066*[#   4]
          +0.066*[#   6]+0.066*[#   7]+0.066*[#   8]
    |psi|^2 = 0.995
==== e(   2) =    -1.44454 eV ==== 
     psi = 0.300*[#   1]+0.300*[#   5]+0.066*[#   2]+0.066*[#   3]+0.066*[#   4]
          +0.066*[#   6]+0.066*[#   7]+0.066*[#   8]
    |psi|^2 = 0.995
==== e(   3) =     2.35541 eV ==== 
     psi = 0.166*[#   2]+0.166*[#   3]+0.166*[#   4]+0.166*[#   6]+0.166*[#   7]
          +0.166*[#   8]
    |psi|^2 = 0.994
==== e(   4) =     2.35541 eV ==== 
     psi = 0.166*[#   2]+0.166*[#   3]+0.166*[#   4]+0.166*[#   6]+0.166*[#   7]
          +0.166*[#   8]
    |psi|^2 = 0.994
==== e(   5) =    10.48658 eV ==== 
     psi = 0.080*[#   2]+0.080*[#   3]+0.080*[#   4]+0.080*[#   6]+0.080*[#   7]
          +0.080*[#   8]
    |psi|^2 = 0.478
==== e(   6) =    10.48658 eV ==== 
     psi = 0.080*[#   2]+0.080*[#   3]+0.080*[#   4]+0.080*[#   6]+0.080*[#   7]
          +0.080*[#   8]
    |psi|^2 = 0.478
==== e(   7) =    11.21815 eV ==== 
     psi = 0.158*[#   1]+0.158*[#   5]+0.087*[#   2]+0.087*[#   3]+0.087*[#   4]
          +0.087*[#   6]+0.087*[#   7]+0.087*[#   8]
    |psi|^2 = 0.836
==== e(   8) =    11.21815 eV ==== 
     psi = 0.158*[#   1]+0.158*[#   5]+0.087*[#   2]+0.087*[#   3]+0.087*[#   4]
          +0.087*[#   6]+0.087*[#   7]+0.087*[#   8]
    |psi|^2 = 0.836
==== e(   9) =    16.79721 eV ==== 
     psi = 0.061*[#   2]+0.061*[#   3]+0.061*[#   4]+0.061*[#   6]+0.061*[#   7]
          +0.061*[#   8]
    |psi|^2 = 0.364
==== e(  10) =    16.79721 eV ==== 
     psi = 0.061*[#   2]+0.061*[#   3]+0.061*[#   4]+0.061*[#   6]+0.061*[#   7]
          +0.061*[#   8]
    |psi|^2 = 0.364
==== e(  11) =    19.26054 eV ==== 
     psi = 0.032*[#   1]+0.032*[#   5]+0.012*[#   2]+0.012*[#   3]+0.012*[#   4]
          +0.012*[#   6]+0.012*[#   7]+0.012*[#   8]
    |psi|^2 = 0.134
==== e(  12) =    19.26054 eV ==== 
     psi = 0.032*[#   1]+0.032*[#   5]+0.012*[#   2]+0.012*[#   3]+0.012*[#   4]
          +0.012*[#   6]+0.012*[#   7]+0.012*[#   8]
    |psi|^2 = 0.134
==== e(  13) =    22.66553 eV ==== 
     psi = 0.002*[#   2]+0.002*[#   3]+0.002*[#   4]+0.002*[#   6]+0.002*[#   7]
          +0.002*[#   8]
    |psi|^2 = 0.011
==== e(  14) =    22.66553 eV ==== 
     psi = 0.002*[#   2]+0.002*[#   3]+0.002*[#   4]+0.002*[#   6]+0.002*[#   7]
          +0.002*[#   8]
    |psi|^2 = 0.011
==== e(  15) =    24.82195 eV ==== 

    |psi|^2 = 0.005
==== e(  16) =    24.82195 eV ==== 

    |psi|^2 = 0.005
==== e(  17) =    25.11016 eV ==== 
     psi = 0.021*[#   2]+0.021*[#   3]+0.021*[#   4]+0.021*[#   6]+0.021*[#   7]
          +0.021*[#   8]
    |psi|^2 = 0.128
==== e(  18) =    25.11016 eV ==== 
     psi = 0.021*[#   2]+0.021*[#   3]+0.021*[#   4]+0.021*[#   6]+0.021*[#   7]
          +0.021*[#   8]
    |psi|^2 = 0.128
==== e(  19) =    26.00218 eV ==== 
     psi = 0.009*[#   1]+0.009*[#   5]
    |psi|^2 = 0.023
==== e(  20) =    26.00218 eV ==== 
     psi = 0.009*[#   1]+0.009*[#   5]
    |psi|^2 = 0.023
==== e(  21) =    29.88360 eV ==== 
     psi = 0.003*[#   2]+0.003*[#   3]+0.003*[#   4]+0.003*[#   6]+0.003*[#   7]
          +0.003*[#   8]
    |psi|^2 = 0.016
==== e(  22) =    29.88360 eV ==== 
     psi = 0.003*[#   2]+0.003*[#   3]+0.003*[#   4]+0.003*[#   6]+0.003*[#   7]
          +0.003*[#   8]
    |psi|^2 = 0.016
==== e(  23) =    33.69825 eV ==== 

    |psi|^2 = 0.001
==== e(  24) =    33.69825 eV ==== 

    |psi|^2 = 0.001
==== e(  25) =    33.89331 eV ==== 

    |psi|^2 = 0.000
==== e(  26) =    33.89331 eV ==== 

    |psi|^2 = 0.000
==== e(  27) =    35.72485 eV ==== 

    |psi|^2 = 0.003
==== e(  28) =    35.72485 eV ==== 

    |psi|^2 = 0.003
==== e(  29) =    38.68448 eV ==== 

    |psi|^2 = 0.005
==== e(  30) =    38.68448 eV ==== 

    |psi|^2 = 0.005
==== e(  31) =    43.06996 eV ==== 

    |psi|^2 = 0.002
==== e(  32) =    43.06996 eV ==== 

    |psi|^2 = 0.002
==== e(  33) =    44.14322 eV ==== 

    |psi|^2 = 0.004
==== e(  34) =    44.14322 eV ==== 

    |psi|^2 = 0.004
==== e(  35) =    46.30655 eV ==== 

    |psi|^2 = 0.000
==== e(  36) =    46.30655 eV ==== 

    |psi|^2 = 0.000

Lowdin Charges: 

     Atom #   1: total charge =   3.9638, s =  1.1615, 
     Atom #   1: total charge =   3.9638, p =  2.8022, pz=  0.9341, px=  0.9341, py=  0.9341, 
     Atom #   2: total charge =   3.9638, s =  1.1615, 
     Atom #   2: total charge =   3.9638, p =  2.8022, pz=  0.9341, px=  0.9341, py=  0.9341, 
     Spilling Parameter:   0.0091

     PROJWFC      :      0.20s CPU      0.34s WALL


   This run was terminated on:  14:16:14   1Nov2025            

=------------------------------------------------------------------------------=
   JOB DONE.
=------------------------------------------------------------------------------=
