
     Program BANDS v.7.4.1 starts on  1Nov2025 at 14:13:15 

     This program is part of the open-source Quantum ESPRESSO suite
     for quantum simulation of materials; please cite
         "P. Giannozzi et al., J. Phys.:Condens. Matter 21 395502 (2009);
         "P. Giannozzi et al., J. Phys.:Condens. Matter 29 465901 (2017);
         "P. Giannozzi et al., J. Chem. Phys. 152 154105 (2020);
          URL http://www.quantum-espresso.org", 
     in publications or presentations arising from this work. More details at
     http://www.quantum-espresso.org/quote

     Parallel version (MPI), running on     2 processors

     MPI processes distributed on     1 nodes
     R & G space division:  proc/nbgrp/npool/nimage =       2
     0 MiB available memory on the printing compute node when the environment starts


     Reading xml data from directory:

     ./tmp_kmesh_8/kmesh_8.save/

     IMPORTANT: XC functional enforced from input :
     Exchange-correlation= PBE
                           (   1   4   3   4   0   0   0)
     Any further DFT definition will be discarded
     Please, verify this is what you really want


     Parallelization info
     --------------------
     sticks:   dense  smooth     PW     G-vecs:    dense   smooth      PW
     Min         429     216     69                 8432     2980     533
     Max         430     217     70                 8433     2981     534
     Sum         859     433    139                16865     5961    1067

     Using Slab Decomposition

     Reading collected, re-writing distributed wavefunctions
     high-symmetry point:  0.0000 0.0000 0.0000   x coordinate   0.0000
     high-symmetry point: -1.0000 0.0000 0.0000   x coordinate   1.0000
     high-symmetry point: -1.0000 0.5000 0.0000   x coordinate   1.5000
     high-symmetry point: -0.7500 0.7500 0.0000   x coordinate   1.8536
     high-symmetry point:  0.0000 0.0000 0.0000   x coordinate   2.9142
     high-symmetry point: -0.5000 0.5000 0.5000   x coordinate   3.7802

     Plottable bands (eV) written to file silicon.bands.dat.gnu
     Bands written to file silicon.bands.dat

 **************************************************************************

                    xk=(   0.00000,   0.00000,   0.00000  )

     point group O_h (m-3m) 
     there are 10 classes
     the character table:

       E     8C3   3C2   6C4   6C2'  i     8S6   3s_h  6S4   6s_d 
A_1g   1.00  1.00  1.00  1.00  1.00  1.00  1.00  1.00  1.00  1.00
A_2g   1.00  1.00  1.00 -1.00 -1.00  1.00  1.00  1.00 -1.00 -1.00
E_g    2.00 -1.00  2.00  0.00  0.00  2.00 -1.00  2.00  0.00  0.00
T_1g   3.00  0.00 -1.00  1.00 -1.00  3.00  0.00 -1.00  1.00 -1.00
T_2g   3.00  0.00 -1.00 -1.00  1.00  3.00  0.00 -1.00 -1.00  1.00
A_1u   1.00  1.00  1.00  1.00  1.00 -1.00 -1.00 -1.00 -1.00 -1.00
A_2u   1.00  1.00  1.00 -1.00 -1.00 -1.00 -1.00 -1.00  1.00  1.00
E_u    2.00 -1.00  2.00  0.00  0.00 -2.00  1.00 -2.00  0.00  0.00
T_1u   3.00  0.00 -1.00  1.00 -1.00 -3.00  0.00  1.00 -1.00  1.00
T_2u   3.00  0.00 -1.00 -1.00  1.00 -3.00  0.00  1.00  1.00 -1.00

     the symmetry operations in each class and the name of the first element:

     E        1
                                                                 
     8C3     17   19   20   18   24   21   22   23
                                                                 
     3C2      2    4    3
                                                                 
     6C4      7    8   15   16   12   11
                                                                 
     6C2'     5    6   14   13   10    9
                                                                 
     i       25
                                                                 
     8S6     41   43   44   42   48   45   46   47
                                                                 
     3s_h    26   28   27
                                                                 
     6S4     31   32   39   40   36   35
                                                                 
     6s_d    29   30   38   37   34   33
                                                                 

     Band symmetry, O_h (m-3m)  point group:

     e(  1 -  1) =     -5.75499  eV     1   --> A_1g G_1   G_1+
     e(  2 -  4) =      6.21261  eV     3   --> T_2g G_25' G_5+
     e(  5 -  7) =      8.77505  eV     3   --> T_1u G_15  G_4-
     e(  8 -  8) =      9.58079  eV     1   --> A_2u G_2'  G_2-

 **************************************************************************

 **************************************************************************

                    xk=(  -0.02500,   0.00000,   0.00000  )

     point group C_4v (4mm) 
     there are  5 classes
     the character table:

       E     2C4   C2    2s_v  2s_d 
A_1    1.00  1.00  1.00  1.00  1.00
A_2    1.00  1.00  1.00 -1.00 -1.00
B_1    1.00 -1.00  1.00  1.00 -1.00
B_2    1.00 -1.00  1.00 -1.00  1.00
E      2.00  0.00 -2.00  0.00  0.00

     the symmetry operations in each class and the name of the first element:

     E        1
                                                                 
     2C4      3    4
                                                                 
     C2       2
                                                                 
     2s_v     5    6
                                                                 
     2s_d     7    8
                                                                 

     Band symmetry, C_4v (4mm)  point group:

     e(  1 -  1) =     -5.75225  eV     1   --> A_1  G_1 D_1   
     e(  2 -  2) =      6.19369  eV     1   --> B_2  G_4 D_2'  
     e(  3 -  4) =      6.20058  eV     2   --> E    G_5 D_5   
     e(  5 -  5) =      8.76820  eV     1   --> A_1  G_1 D_1   
     e(  6 -  7) =      8.79040  eV     2   --> E    G_5 D_5   
     e(  8 -  8) =      9.59935  eV     1   --> B_2  G_4 D_2'  

 **************************************************************************

 **************************************************************************

                    xk=(  -0.05000,   0.00000,   0.00000  )

     Band symmetry, C_4v (4mm)  point group:

     e(  1 -  1) =     -5.74404  eV     1   --> A_1  G_1 D_1   
     e(  2 -  2) =      6.13820  eV     1   --> B_2  G_4 D_2'  
     e(  3 -  4) =      6.16550  eV     2   --> E    G_5 D_5   
     e(  5 -  5) =      8.74791  eV     1   --> A_1  G_1 D_1   
     e(  6 -  7) =      8.83560  eV     2   --> E    G_5 D_5   
     e(  8 -  8) =      9.65356  eV     1   --> B_2  G_4 D_2'  

 **************************************************************************

 **************************************************************************

                    xk=(  -0.07500,   0.00000,   0.00000  )

     Band symmetry, C_4v (4mm)  point group:

     e(  1 -  1) =     -5.73036  eV     1   --> A_1  G_1 D_1   
     e(  2 -  2) =      6.04961  eV     1   --> B_2  G_4 D_2'  
     e(  3 -  4) =      6.10969  eV     2   --> E    G_5 D_5   
     e(  5 -  5) =      8.71477  eV     1   --> A_1  G_1 D_1   
     e(  6 -  7) =      8.90826  eV     2   --> E    G_5 D_5   
     e(  8 -  8) =      9.73935  eV     1   --> B_2  G_4 D_2'  

 **************************************************************************

 **************************************************************************

                    xk=(  -0.10000,   0.00000,   0.00000  )

     Band symmetry, C_4v (4mm)  point group:

     e(  1 -  1) =     -5.71120  eV     1   --> A_1  G_1 D_1   
     e(  2 -  2) =      5.93264  eV     1   --> B_2  G_4 D_2'  
     e(  3 -  4) =      6.03641  eV     2   --> E    G_5 D_5   
     e(  5 -  5) =      8.66975  eV     1   --> A_1  G_1 D_1   
     e(  6 -  7) =      9.00511  eV     2   --> E    G_5 D_5   
     e(  8 -  8) =      9.85089  eV     1   --> B_2  G_4 D_2'  

 **************************************************************************

 **************************************************************************

                    xk=(  -0.12500,   0.00000,   0.00000  )

     Band symmetry, C_4v (4mm)  point group:

     e(  1 -  1) =     -5.68659  eV     1   --> A_1  G_1 D_1   
     e(  2 -  2) =      5.79232  eV     1   --> B_2  G_4 D_2'  
     e(  3 -  4) =      5.94918  eV     2   --> E    G_5 D_5   
     e(  5 -  5) =      8.61403  eV     1   --> A_1  G_1 D_1   
     e(  6 -  7) =      9.12258  eV     2   --> E    G_5 D_5   
     e(  8 -  8) =      9.98137  eV     1   --> B_2  G_4 D_2'  

 **************************************************************************

 **************************************************************************

                    xk=(  -0.15000,   0.00000,   0.00000  )

     Band symmetry, C_4v (4mm)  point group:

     e(  1 -  1) =     -5.65652  eV     1   --> A_1  G_1 D_1   
     e(  2 -  2) =      5.63329  eV     1   --> B_2  G_4 D_2'  
     e(  3 -  4) =      5.85134  eV     2   --> E    G_5 D_5   
     e(  5 -  5) =      8.54898  eV     1   --> A_1  G_1 D_1   
     e(  6 -  7) =      9.25732  eV     2   --> E    G_5 D_5   
     e(  8 -  8) =     10.12334  eV     1   --> B_2  G_4 D_2'  

 **************************************************************************

 **************************************************************************

                    xk=(  -0.17500,   0.00000,   0.00000  )

     Band symmetry, C_4v (4mm)  point group:

     e(  1 -  1) =     -5.62102  eV     1   --> A_1  G_1 D_1   
     e(  2 -  2) =      5.45949  eV     1   --> B_2  G_4 D_2'  
     e(  3 -  4) =      5.74576  eV     2   --> E    G_5 D_5   
     e(  5 -  5) =      8.47605  eV     1   --> A_1  G_1 D_1   
     e(  6 -  7) =      9.40638  eV     2   --> E    G_5 D_5   
     e(  8 -  8) =     10.26850  eV     1   --> B_2  G_4 D_2'  

 **************************************************************************

 **************************************************************************

                    xk=(  -0.20000,   0.00000,   0.00000  )

     Band symmetry, C_4v (4mm)  point group:

     e(  1 -  1) =     -5.58008  eV     1   --> A_1  G_1 D_1   
     e(  2 -  2) =      5.27418  eV     1   --> B_2  G_4 D_2'  
     e(  3 -  4) =      5.63484  eV     2   --> E    G_5 D_5   
     e(  5 -  5) =      8.39668  eV     1   --> A_1  G_1 D_1   
     e(  6 -  7) =      9.56734  eV     2   --> E    G_5 D_5   
     e(  8 -  8) =     10.40707  eV     1   --> B_2  G_4 D_2'  

 **************************************************************************

 **************************************************************************

                    xk=(  -0.22500,   0.00000,   0.00000  )

     Band symmetry, C_4v (4mm)  point group:

     e(  1 -  1) =     -5.53372  eV     1   --> A_1  G_1 D_1   
     e(  2 -  2) =      5.07981  eV     1   --> B_2  G_4 D_2'  
     e(  3 -  4) =      5.52045  eV     2   --> E    G_5 D_5   
     e(  5 -  5) =      8.31221  eV     1   --> A_1  G_1 D_1   
     e(  6 -  7) =      9.73817  eV     2   --> E    G_5 D_5   
     e(  8 -  8) =     10.52681  eV     1   --> B_2  G_4 D_2'  

 **************************************************************************

 **************************************************************************

                    xk=(  -0.25000,   0.00000,   0.00000  )

     Band symmetry, C_4v (4mm)  point group:

     e(  1 -  1) =     -5.48197  eV     1   --> A_1  G_1 D_1   
     e(  2 -  2) =      4.87848  eV     1   --> B_2  G_4 D_2'  
     e(  3 -  4) =      5.40428  eV     2   --> E    G_5 D_5   
     e(  5 -  5) =      8.22402  eV     1   --> A_1  G_1 D_1   
     e(  6 -  7) =      9.91732  eV     2   --> E    G_5 D_5   
     e(  8 -  8) =     10.61292  eV     1   --> B_2  G_4 D_2'  

 **************************************************************************

 **************************************************************************

                    xk=(  -0.27500,   0.00000,   0.00000  )

     Band symmetry, C_4v (4mm)  point group:

     e(  1 -  1) =     -5.42483  eV     1   --> A_1  G_1 D_1   
     e(  2 -  2) =      4.67159  eV     1   --> B_2  G_4 D_2'  
     e(  3 -  4) =      5.28746  eV     2   --> E    G_5 D_5   
     e(  5 -  5) =      8.13324  eV     1   --> A_1  G_1 D_1   
     e(  6 -  7) =     10.10342  eV     2   --> E    G_5 D_5   
     e(  8 -  8) =     10.65021  eV     1   --> B_2  G_4 D_2'  

 **************************************************************************

 **************************************************************************

                    xk=(  -0.30000,   0.00000,   0.00000  )

     Band symmetry, C_4v (4mm)  point group:

     e(  1 -  1) =     -5.36234  eV     1   --> A_1  G_1 D_1   
     e(  2 -  2) =      4.46043  eV     1   --> B_2  G_4 D_2'  
     e(  3 -  4) =      5.17100  eV     2   --> E    G_5 D_5   
     e(  5 -  5) =      8.04097  eV     1   --> A_1  G_1 D_1   
     e(  6 -  7) =     10.29556  eV     2   --> E    G_5 D_5   
     e(  8 -  8) =     10.62962  eV     1   --> B_2  G_4 D_2'  

 **************************************************************************

 **************************************************************************

                    xk=(  -0.32500,   0.00000,   0.00000  )

     Band symmetry, C_4v (4mm)  point group:

     e(  1 -  1) =     -5.29451  eV     1   --> A_1  G_1 D_1   
     e(  2 -  2) =      4.24584  eV     1   --> B_2  G_4 D_2'  
     e(  3 -  4) =      5.05556  eV     2   --> E    G_5 D_5   
     e(  5 -  5) =      7.94810  eV     1   --> A_1  G_1 D_1   
     e(  6 -  7) =     10.49297  eV     2   --> E    G_5 D_5   
     e(  8 -  8) =     10.55289  eV     1   --> B_2  G_4 D_2'  

 **************************************************************************

 **************************************************************************

                    xk=(  -0.35000,   0.00000,   0.00000  )

     Band symmetry, C_4v (4mm)  point group:

     e(  1 -  1) =     -5.22136  eV     1   --> A_1  G_1 D_1   
     e(  2 -  2) =      4.02859  eV     1   --> B_2  G_4 D_2'  
     e(  3 -  4) =      4.94196  eV     2   --> E    G_5 D_5   
     e(  5 -  5) =      7.85559  eV     1   --> A_1  G_1 D_1   
     e(  6 -  6) =     10.43112  eV     1   --> B_2  G_4 D_2'  
     e(  7 -  8) =     10.69476  eV     2   --> E    G_5 D_5   

 **************************************************************************

 **************************************************************************

                    xk=(  -0.37500,   0.00000,   0.00000  )

     Band symmetry, C_4v (4mm)  point group:

     e(  1 -  1) =     -5.14293  eV     1   --> A_1  G_1 D_1   
     e(  2 -  2) =      3.80921  eV     1   --> B_2  G_4 D_2'  
     e(  3 -  4) =      4.83060  eV     2   --> E    G_5 D_5   
     e(  5 -  5) =      7.76410  eV     1   --> A_1  G_1 D_1   
     e(  6 -  6) =     10.27792  eV     1   --> B_2  G_4 D_2'  
     e(  7 -  8) =     10.90038  eV     2   --> E    G_5 D_5   

 **************************************************************************

 **************************************************************************

                    xk=(  -0.40000,   0.00000,   0.00000  )

     Band symmetry, C_4v (4mm)  point group:

     e(  1 -  1) =     -5.05924  eV     1   --> A_1  G_1 D_1   
     e(  2 -  2) =      3.58816  eV     1   --> B_2  G_4 D_2'  
     e(  3 -  4) =      4.72190  eV     2   --> E    G_5 D_5   
     e(  5 -  5) =      7.67432  eV     1   --> A_1  G_1 D_1   
     e(  6 -  6) =     10.10489  eV     1   --> B_2  G_4 D_2'  
     e(  7 -  8) =     11.10942  eV     2   --> E    G_5 D_5   

 **************************************************************************

 **************************************************************************

                    xk=(  -0.42500,   0.00000,   0.00000  )

     Band symmetry, C_4v (4mm)  point group:

     e(  1 -  1) =     -4.97033  eV     1   --> A_1  G_1 D_1   
     e(  2 -  2) =      3.36582  eV     1   --> B_2  G_4 D_2'  
     e(  3 -  4) =      4.61621  eV     2   --> E    G_5 D_5   
     e(  5 -  5) =      7.58682  eV     1   --> A_1  G_1 D_1   
     e(  6 -  6) =      9.92048  eV     1   --> B_2  G_4 D_2'  
     e(  7 -  8) =     11.32148  eV     2   --> E    G_5 D_5   

 **************************************************************************

 **************************************************************************

                    xk=(  -0.45000,   0.00000,   0.00000  )

     Band symmetry, C_4v (4mm)  point group:

     e(  1 -  1) =     -4.87624  eV     1   --> A_1  G_1 D_1   
     e(  2 -  2) =      3.14248  eV     1   --> B_2  G_4 D_2'  
     e(  3 -  4) =      4.51381  eV     2   --> E    G_5 D_5   
     e(  5 -  5) =      7.50212  eV     1   --> A_1  G_1 D_1   
     e(  6 -  6) =      9.73050  eV     1   --> B_2  G_4 D_2'  
     e(  7 -  8) =     11.53626  eV     2   --> E    G_5 D_5   

 **************************************************************************

 **************************************************************************

                    xk=(  -0.47500,   0.00000,   0.00000  )

     Band symmetry, C_4v (4mm)  point group:

     e(  1 -  1) =     -4.77699  eV     1   --> A_1  G_1 D_1   
     e(  2 -  2) =      2.91842  eV     1   --> B_2  G_4 D_2'  
     e(  3 -  4) =      4.41494  eV     2   --> E    G_5 D_5   
     e(  5 -  5) =      7.42065  eV     1   --> A_1  G_1 D_1   
     e(  6 -  6) =      9.53891  eV     1   --> B_2  G_4 D_2'  
     e(  7 -  8) =     11.75346  eV     2   --> E    G_5 D_5   

 **************************************************************************

 **************************************************************************

                    xk=(  -0.50000,   0.00000,   0.00000  )

     Band symmetry, C_4v (4mm)  point group:

     e(  1 -  1) =     -4.67263  eV     1   --> A_1  G_1 D_1   
     e(  2 -  2) =      2.69389  eV     1   --> B_2  G_4 D_2'  
     e(  3 -  4) =      4.31982  eV     2   --> E    G_5 D_5   
     e(  5 -  5) =      7.34291  eV     1   --> A_1  G_1 D_1   
     e(  6 -  6) =      9.34847  eV     1   --> B_2  G_4 D_2'  
     e(  7 -  8) =     11.97307  eV     2   --> E    G_5 D_5   

 **************************************************************************

 **************************************************************************

                    xk=(  -0.52500,   0.00000,   0.00000  )

     Band symmetry, C_4v (4mm)  point group:

     e(  1 -  1) =     -4.56321  eV     1   --> A_1  G_1 D_1   
     e(  2 -  2) =      2.46906  eV     1   --> B_2  G_4 D_2'  
     e(  3 -  4) =      4.22859  eV     2   --> E    G_5 D_5   
     e(  5 -  5) =      7.26908  eV     1   --> A_1  G_1 D_1   
     e(  6 -  6) =      9.16107  eV     1   --> B_2  G_4 D_2'  
     e(  7 -  8) =     12.19447  eV     2   --> E    G_5 D_5   

 **************************************************************************

 **************************************************************************

                    xk=(  -0.55000,   0.00000,   0.00000  )

     Band symmetry, C_4v (4mm)  point group:

     e(  1 -  1) =     -4.44878  eV     1   --> A_1  G_1 D_1   
     e(  2 -  2) =      2.24415  eV     1   --> B_2  G_4 D_2'  
     e(  3 -  4) =      4.14140  eV     2   --> E    G_5 D_5   
     e(  5 -  5) =      7.19954  eV     1   --> A_1  G_1 D_1   
     e(  6 -  6) =      8.97810  eV     1   --> B_2  G_4 D_2'  
     e(  7 -  8) =     12.41769  eV     2   --> E    G_5 D_5   

 **************************************************************************

 **************************************************************************

                    xk=(  -0.57500,   0.00000,   0.00000  )

     Band symmetry, C_4v (4mm)  point group:

     e(  1 -  1) =     -4.32938  eV     1   --> A_1  G_1 D_1   
     e(  2 -  2) =      2.01933  eV     1   --> B_2  G_4 D_2'  
     e(  3 -  4) =      4.05836  eV     2   --> E    G_5 D_5   
     e(  5 -  5) =      7.13451  eV     1   --> A_1  G_1 D_1   
     e(  6 -  6) =      8.80049  eV     1   --> B_2  G_4 D_2'  
     e(  7 -  8) =     12.64264  eV     2   --> E    G_5 D_5   

 **************************************************************************

 **************************************************************************

                    xk=(  -0.60000,   0.00000,   0.00000  )

     Band symmetry, C_4v (4mm)  point group:

     e(  1 -  1) =     -4.20506  eV     1   --> A_1  G_1 D_1   
     e(  2 -  2) =      1.79483  eV     1   --> B_2  G_4 D_2'  
     e(  3 -  4) =      3.97968  eV     2   --> E    G_5 D_5   
     e(  5 -  5) =      7.07444  eV     1   --> A_1  G_1 D_1   
     e(  6 -  6) =      8.62917  eV     1   --> B_2  G_4 D_2'  
     e(  7 -  8) =     12.86920  eV     2   --> E    G_5 D_5   

 **************************************************************************

 **************************************************************************

                    xk=(  -0.62500,   0.00000,   0.00000  )

     Band symmetry, C_4v (4mm)  point group:

     e(  1 -  1) =     -4.07590  eV     1   --> A_1  G_1 D_1   
     e(  2 -  2) =      1.57081  eV     1   --> B_2  G_4 D_2'  
     e(  3 -  4) =      3.90538  eV     2   --> E    G_5 D_5   
     e(  5 -  5) =      7.01947  eV     1   --> A_1  G_1 D_1   
     e(  6 -  6) =      8.46459  eV     1   --> B_2  G_4 D_2'  
     e(  7 -  8) =     13.09727  eV     2   --> E    G_5 D_5   

 **************************************************************************

 **************************************************************************

                    xk=(  -0.65000,   0.00000,   0.00000  )

     Band symmetry, C_4v (4mm)  point group:

     e(  1 -  1) =     -3.94193  eV     1   --> A_1  G_1 D_1   
     e(  2 -  2) =      1.34742  eV     1   --> B_2  G_4 D_2'  
     e(  3 -  4) =      3.83557  eV     2   --> E    G_5 D_5   
     e(  5 -  5) =      6.96981  eV     1   --> A_1  G_1 D_1   
     e(  6 -  6) =      8.30703  eV     1   --> B_2  G_4 D_2'  
     e(  7 -  8) =     13.32676  eV     2   --> E    G_5 D_5   

 **************************************************************************

 **************************************************************************

                    xk=(  -0.67500,   0.00000,   0.00000  )

     Band symmetry, C_4v (4mm)  point group:

     e(  1 -  1) =     -3.80324  eV     1   --> A_1  G_1 D_1   
     e(  2 -  2) =      1.12489  eV     1   --> B_2  G_4 D_2'  
     e(  3 -  4) =      3.77030  eV     2   --> E    G_5 D_5   
     e(  5 -  5) =      6.92564  eV     1   --> A_1  G_1 D_1   
     e(  6 -  6) =      8.15706  eV     1   --> B_2  G_4 D_2'  
     e(  7 -  8) =     13.55760  eV     2   --> E    G_5 D_5   

 **************************************************************************

 **************************************************************************

                    xk=(  -0.70000,   0.00000,   0.00000  )

     Band symmetry, C_4v (4mm)  point group:

     e(  1 -  1) =     -3.65990  eV     1   --> A_1  G_1 D_1   
     e(  2 -  2) =      0.90338  eV     1   --> B_2  G_4 D_2'  
     e(  3 -  4) =      3.70965  eV     2   --> E    G_5 D_5   
     e(  5 -  5) =      6.88716  eV     1   --> A_1  G_1 D_1   
     e(  6 -  6) =      8.01476  eV     1   --> B_2  G_4 D_2'  
     e(  7 -  8) =     13.78972  eV     2   --> E    G_5 D_5   

 **************************************************************************

 **************************************************************************

                    xk=(  -0.72500,   0.00000,   0.00000  )

     Band symmetry, C_4v (4mm)  point group:

     e(  1 -  1) =     -3.51198  eV     1   --> A_1  G_1 D_1   
     e(  2 -  2) =      0.68307  eV     1   --> B_2  G_4 D_2'  
     e(  3 -  4) =      3.65363  eV     2   --> E    G_5 D_5   
     e(  5 -  5) =      6.85452  eV     1   --> A_1  G_1 D_1   
     e(  6 -  6) =      7.88028  eV     1   --> B_2  G_4 D_2'  
     e(  7 -  8) =     14.02303  eV     2   --> E    G_5 D_5   

 **************************************************************************

 **************************************************************************

                    xk=(  -0.75000,   0.00000,   0.00000  )

     Band symmetry, C_4v (4mm)  point group:

     e(  1 -  1) =     -3.35955  eV     1   --> A_1  G_1 D_1   
     e(  2 -  2) =      0.46416  eV     1   --> B_2  G_4 D_2'  
     e(  3 -  4) =      3.60238  eV     2   --> E    G_5 D_5   
     e(  5 -  5) =      6.82790  eV     1   --> A_1  G_1 D_1   
     e(  6 -  6) =      7.75371  eV     1   --> B_2  G_4 D_2'  
     e(  7 -  8) =     14.25739  eV     2   --> E    G_5 D_5   

 **************************************************************************

 **************************************************************************

                    xk=(  -0.77500,   0.00000,   0.00000  )

     Band symmetry, C_4v (4mm)  point group:

     e(  1 -  1) =     -3.20270  eV     1   --> A_1  G_1 D_1   
     e(  2 -  2) =      0.24683  eV     1   --> B_2  G_4 D_2'  
     e(  3 -  4) =      3.55589  eV     2   --> E    G_5 D_5   
     e(  5 -  5) =      6.80745  eV     1   --> A_1  G_1 D_1   
     e(  6 -  6) =      7.63512  eV     1   --> B_2  G_4 D_2'  
     e(  7 -  8) =     14.49265  eV     2   --> E    G_5 D_5   

 **************************************************************************

 **************************************************************************

                    xk=(  -0.80000,   0.00000,   0.00000  )

     Band symmetry, C_4v (4mm)  point group:

     e(  1 -  1) =     -3.04152  eV     1   --> A_1  G_1 D_1   
     e(  2 -  2) =      0.03125  eV     1   --> B_2  G_4 D_2'  
     e(  3 -  4) =      3.51420  eV     2   --> E    G_5 D_5   
     e(  5 -  5) =      6.79330  eV     1   --> A_1  G_1 D_1   
     e(  6 -  6) =      7.52452  eV     1   --> B_2  G_4 D_2'  
     e(  7 -  8) =     14.72855  eV     2   --> E    G_5 D_5   

 **************************************************************************

 **************************************************************************

                    xk=(  -0.82500,   0.00000,   0.00000  )

     Band symmetry, C_4v (4mm)  point group:

     e(  1 -  1) =     -2.87611  eV     1   --> A_1  G_1 D_1   
     e(  2 -  2) =     -0.18238  eV     1   --> B_2  G_4 D_2'  
     e(  3 -  4) =      3.47734  eV     2   --> E    G_5 D_5   
     e(  5 -  5) =      6.78561  eV     1   --> A_1  G_1 D_1   
     e(  6 -  6) =      7.42191  eV     1   --> B_2  G_4 D_2'  
     e(  7 -  8) =     14.96469  eV     2   --> E    G_5 D_5   

 **************************************************************************

 **************************************************************************

                    xk=(  -0.85000,   0.00000,   0.00000  )

     Band symmetry, C_4v (4mm)  point group:

     e(  1 -  1) =     -2.70656  eV     1   --> A_1  G_1 D_1   
     e(  2 -  2) =     -0.39389  eV     1   --> B_2  G_4 D_2'  
     e(  3 -  4) =      3.44536  eV     2   --> E    G_5 D_5   
     e(  5 -  5) =      6.78455  eV     1   --> A_1  G_1 D_1   
     e(  6 -  6) =      7.32728  eV     1   --> B_2  G_4 D_2'  
     e(  7 -  8) =     15.20048  eV     2   --> E    G_5 D_5   

 **************************************************************************

 **************************************************************************

                    xk=(  -0.87500,   0.00000,   0.00000  )

     Band symmetry, C_4v (4mm)  point group:

     e(  1 -  1) =     -2.53297  eV     1   --> A_1  G_1 D_1   
     e(  2 -  2) =     -0.60310  eV     1   --> B_2  G_4 D_2'  
     e(  3 -  4) =      3.41825  eV     2   --> E    G_5 D_5   
     e(  5 -  5) =      6.79015  eV     1   --> A_1  G_1 D_1   
     e(  6 -  6) =      7.24054  eV     1   --> B_2  G_4 D_2'  
     e(  7 -  8) =     15.43467  eV     2   --> E    G_5 D_5   

 **************************************************************************

 **************************************************************************

                    xk=(  -0.90000,   0.00000,   0.00000  )

     Band symmetry, C_4v (4mm)  point group:

     e(  1 -  1) =     -2.35547  eV     1   --> A_1  G_1 D_1   
     e(  2 -  2) =     -0.80984  eV     1   --> B_2  G_4 D_2'  
     e(  3 -  4) =      3.39604  eV     2   --> E    G_5 D_5   
     e(  5 -  5) =      6.80258  eV     1   --> A_1  G_1 D_1   
     e(  6 -  6) =      7.16165  eV     1   --> B_2  G_4 D_2'  
     e(  7 -  8) =     15.66514  eV     2   --> E    G_5 D_5   

 **************************************************************************

 **************************************************************************

                    xk=(  -0.92500,   0.00000,   0.00000  )

     Band symmetry, C_4v (4mm)  point group:

     e(  1 -  1) =     -2.17418  eV     1   --> A_1  G_1 D_1   
     e(  2 -  2) =     -1.01394  eV     1   --> B_2  G_4 D_2'  
     e(  3 -  4) =      3.37875  eV     2   --> E    G_5 D_5   
     e(  5 -  5) =      6.82195  eV     1   --> A_1  G_1 D_1   
     e(  6 -  6) =      7.09054  eV     1   --> B_2  G_4 D_2'  
     e(  7 -  8) =     15.88755  eV     2   --> E    G_5 D_5   

 **************************************************************************

 **************************************************************************

                    xk=(  -0.95000,   0.00000,   0.00000  )

     Band symmetry, C_4v (4mm)  point group:

     e(  1 -  1) =     -1.98920  eV     1   --> A_1  G_1 D_1   
     e(  2 -  2) =     -1.21522  eV     1   --> B_2  G_4 D_2'  
     e(  3 -  4) =      3.36640  eV     2   --> E    G_5 D_5   
     e(  5 -  5) =      6.84843  eV     1   --> A_1  G_1 D_1   
     e(  6 -  6) =      7.02712  eV     1   --> B_2  G_4 D_2'  
     e(  7 -  8) =     16.09211  eV     2   --> E    G_5 D_5   

 **************************************************************************

 **************************************************************************

                    xk=(  -0.97500,   0.00000,   0.00000  )

     Band symmetry, C_4v (4mm)  point group:

     e(  1 -  1) =     -1.80068  eV     1   --> A_1  G_1 D_1   
     e(  2 -  2) =     -1.41355  eV     1   --> B_2  G_4 D_2'  
     e(  3 -  4) =      3.35899  eV     2   --> E    G_5 D_5   
     e(  5 -  5) =      6.88205  eV     1   --> A_1  G_1 D_1   
     e(  6 -  6) =      6.97129  eV     1   --> B_2  G_4 D_2'  
     e(  7 -  8) =     16.25404  eV     2   --> E    G_5 D_5   

 **************************************************************************

 **************************************************************************

                    xk=(  -1.00000,   0.00000,   0.00000  )

     zone border point and non-symmorphic group 
     symmetry decomposition not available

 **************************************************************************

 **************************************************************************

                    xk=(  -1.00000,   0.01250,   0.00000  )

     zone border point and non-symmorphic group 
     symmetry decomposition not available

 **************************************************************************

 **************************************************************************

                    xk=(  -1.00000,   0.02500,   0.00000  )

     zone border point and non-symmorphic group 
     symmetry decomposition not available

 **************************************************************************

 **************************************************************************

                    xk=(  -1.00000,   0.03750,   0.00000  )

     zone border point and non-symmorphic group 
     symmetry decomposition not available

 **************************************************************************

 **************************************************************************

                    xk=(  -1.00000,   0.05000,   0.00000  )

     zone border point and non-symmorphic group 
     symmetry decomposition not available

 **************************************************************************

 **************************************************************************

                    xk=(  -1.00000,   0.06250,   0.00000  )

     zone border point and non-symmorphic group 
     symmetry decomposition not available

 **************************************************************************

 **************************************************************************

                    xk=(  -1.00000,   0.07500,   0.00000  )

     zone border point and non-symmorphic group 
     symmetry decomposition not available

 **************************************************************************

 **************************************************************************

                    xk=(  -1.00000,   0.08750,   0.00000  )

     zone border point and non-symmorphic group 
     symmetry decomposition not available

 **************************************************************************

 **************************************************************************

                    xk=(  -1.00000,   0.10000,   0.00000  )

     zone border point and non-symmorphic group 
     symmetry decomposition not available

 **************************************************************************

 **************************************************************************

                    xk=(  -1.00000,   0.11250,   0.00000  )

     zone border point and non-symmorphic group 
     symmetry decomposition not available

 **************************************************************************

 **************************************************************************

                    xk=(  -1.00000,   0.12500,   0.00000  )

     zone border point and non-symmorphic group 
     symmetry decomposition not available

 **************************************************************************

 **************************************************************************

                    xk=(  -1.00000,   0.13750,   0.00000  )

     zone border point and non-symmorphic group 
     symmetry decomposition not available

 **************************************************************************

 **************************************************************************

                    xk=(  -1.00000,   0.15000,   0.00000  )

     zone border point and non-symmorphic group 
     symmetry decomposition not available

 **************************************************************************

 **************************************************************************

                    xk=(  -1.00000,   0.16250,   0.00000  )

     zone border point and non-symmorphic group 
     symmetry decomposition not available

 **************************************************************************

 **************************************************************************

                    xk=(  -1.00000,   0.17500,   0.00000  )

     zone border point and non-symmorphic group 
     symmetry decomposition not available

 **************************************************************************

 **************************************************************************

                    xk=(  -1.00000,   0.18750,   0.00000  )

     zone border point and non-symmorphic group 
     symmetry decomposition not available

 **************************************************************************

 **************************************************************************

                    xk=(  -1.00000,   0.20000,   0.00000  )

     zone border point and non-symmorphic group 
     symmetry decomposition not available

 **************************************************************************

 **************************************************************************

                    xk=(  -1.00000,   0.21250,   0.00000  )

     zone border point and non-symmorphic group 
     symmetry decomposition not available

 **************************************************************************

 **************************************************************************

                    xk=(  -1.00000,   0.22500,   0.00000  )

     zone border point and non-symmorphic group 
     symmetry decomposition not available

 **************************************************************************

 **************************************************************************

                    xk=(  -1.00000,   0.23750,   0.00000  )

     zone border point and non-symmorphic group 
     symmetry decomposition not available

 **************************************************************************

 **************************************************************************

                    xk=(  -1.00000,   0.25000,   0.00000  )

     zone border point and non-symmorphic group 
     symmetry decomposition not available

 **************************************************************************

 **************************************************************************

                    xk=(  -1.00000,   0.26250,   0.00000  )

     zone border point and non-symmorphic group 
     symmetry decomposition not available

 **************************************************************************

 **************************************************************************

                    xk=(  -1.00000,   0.27500,   0.00000  )

     zone border point and non-symmorphic group 
     symmetry decomposition not available

 **************************************************************************

 **************************************************************************

                    xk=(  -1.00000,   0.28750,   0.00000  )

     zone border point and non-symmorphic group 
     symmetry decomposition not available

 **************************************************************************

 **************************************************************************

                    xk=(  -1.00000,   0.30000,   0.00000  )

     zone border point and non-symmorphic group 
     symmetry decomposition not available

 **************************************************************************

 **************************************************************************

                    xk=(  -1.00000,   0.31250,   0.00000  )

     zone border point and non-symmorphic group 
     symmetry decomposition not available

 **************************************************************************

 **************************************************************************

                    xk=(  -1.00000,   0.32500,   0.00000  )

     zone border point and non-symmorphic group 
     symmetry decomposition not available

 **************************************************************************

 **************************************************************************

                    xk=(  -1.00000,   0.33750,   0.00000  )

     zone border point and non-symmorphic group 
     symmetry decomposition not available

 **************************************************************************

 **************************************************************************

                    xk=(  -1.00000,   0.35000,   0.00000  )

     zone border point and non-symmorphic group 
     symmetry decomposition not available

 **************************************************************************

 **************************************************************************

                    xk=(  -1.00000,   0.36250,   0.00000  )

     zone border point and non-symmorphic group 
     symmetry decomposition not available

 **************************************************************************

 **************************************************************************

                    xk=(  -1.00000,   0.37500,   0.00000  )

     zone border point and non-symmorphic group 
     symmetry decomposition not available

 **************************************************************************

 **************************************************************************

                    xk=(  -1.00000,   0.38750,   0.00000  )

     zone border point and non-symmorphic group 
     symmetry decomposition not available

 **************************************************************************

 **************************************************************************

                    xk=(  -1.00000,   0.40000,   0.00000  )

     zone border point and non-symmorphic group 
     symmetry decomposition not available

 **************************************************************************

 **************************************************************************

                    xk=(  -1.00000,   0.41250,   0.00000  )

     zone border point and non-symmorphic group 
     symmetry decomposition not available

 **************************************************************************

 **************************************************************************

                    xk=(  -1.00000,   0.42500,   0.00000  )

     zone border point and non-symmorphic group 
     symmetry decomposition not available

 **************************************************************************

 **************************************************************************

                    xk=(  -1.00000,   0.43750,   0.00000  )

     zone border point and non-symmorphic group 
     symmetry decomposition not available

 **************************************************************************

 **************************************************************************

                    xk=(  -1.00000,   0.45000,   0.00000  )

     zone border point and non-symmorphic group 
     symmetry decomposition not available

 **************************************************************************

 **************************************************************************

                    xk=(  -1.00000,   0.46250,   0.00000  )

     zone border point and non-symmorphic group 
     symmetry decomposition not available

 **************************************************************************

 **************************************************************************

                    xk=(  -1.00000,   0.47500,   0.00000  )

     zone border point and non-symmorphic group 
     symmetry decomposition not available

 **************************************************************************

 **************************************************************************

                    xk=(  -1.00000,   0.48750,   0.00000  )

     zone border point and non-symmorphic group 
     symmetry decomposition not available

 **************************************************************************

 **************************************************************************

                    xk=(  -1.00000,   0.50000,   0.00000  )

     zone border point and non-symmorphic group 
     symmetry decomposition not available

 **************************************************************************

 **************************************************************************

                    xk=(  -0.99375,   0.50625,   0.00000  )

     point group C_s (m)    
     there are  2 classes
     the character table:

       E     s    
A'     1.00  1.00
A''    1.00 -1.00

     the symmetry operations in each class and the name of the first element:

     E        1
                                                                 
     s        2
                                                                 

     Band symmetry, C_s (m)     point group:

     e(  1 -  1) =     -1.47293  eV     1   --> A'             
     e(  2 -  2) =     -1.41639  eV     1   --> A''            
     e(  3 -  3) =      2.33400  eV     1   --> A'             
     e(  4 -  4) =      2.37805  eV     1   --> A''            
     e(  5 -  5) =     10.45074  eV     1   --> A''            
     e(  6 -  6) =     10.50571  eV     1   --> A'             
     e(  7 -  7) =     11.20915  eV     1   --> A''            
     e(  8 -  8) =     11.24525  eV     1   --> A'             

 **************************************************************************

 **************************************************************************

                    xk=(  -0.98750,   0.51250,   0.00000  )

     Band symmetry, C_s (m)     point group:

     e(  1 -  1) =     -1.50062  eV     1   --> A'             
     e(  2 -  2) =     -1.38941  eV     1   --> A''            
     e(  3 -  3) =      2.31304  eV     1   --> A'             
     e(  4 -  4) =      2.40268  eV     1   --> A''            
     e(  5 -  5) =     10.38929  eV     1   --> A''            
     e(  6 -  6) =     10.52015  eV     1   --> A'             
     e(  7 -  7) =     11.22745  eV     1   --> A''            
     e(  8 -  8) =     11.27811  eV     1   --> A'             

 **************************************************************************

 **************************************************************************

                    xk=(  -0.98125,   0.51875,   0.00000  )

     Band symmetry, C_s (m)     point group:

     e(  1 -  1) =     -1.52760  eV     1   --> A'             
     e(  2 -  2) =     -1.36362  eV     1   --> A''            
     e(  3 -  3) =      2.29255  eV     1   --> A'             
     e(  4 -  4) =      2.42927  eV     1   --> A''            
     e(  5 -  5) =     10.30893  eV     1   --> A''            
     e(  6 -  6) =     10.53024  eV     1   --> A'             
     e(  7 -  7) =     11.26637  eV     1   --> A''            
     e(  8 -  8) =     11.31639  eV     1   --> A'             

 **************************************************************************

 **************************************************************************

                    xk=(  -0.97500,   0.52500,   0.00000  )

     Band symmetry, C_s (m)     point group:

     e(  1 -  1) =     -1.55387  eV     1   --> A'             
     e(  2 -  2) =     -1.33902  eV     1   --> A''            
     e(  3 -  3) =      2.27253  eV     1   --> A'             
     e(  4 -  4) =      2.45779  eV     1   --> A''            
     e(  5 -  5) =     10.21620  eV     1   --> A''            
     e(  6 -  6) =     10.53646  eV     1   --> A'             
     e(  7 -  7) =     11.31943  eV     1   --> A''            
     e(  8 -  8) =     11.35959  eV     1   --> A'             

 **************************************************************************

 **************************************************************************

                    xk=(  -0.96875,   0.53125,   0.00000  )

     Band symmetry, C_s (m)     point group:

     e(  1 -  1) =     -1.57944  eV     1   --> A'             
     e(  2 -  2) =     -1.31558  eV     1   --> A''            
     e(  3 -  3) =      2.25299  eV     1   --> A'             
     e(  4 -  4) =      2.48820  eV     1   --> A''            
     e(  5 -  5) =     10.11580  eV     1   --> A''            
     e(  6 -  6) =     10.53936  eV     1   --> A'             
     e(  7 -  7) =     11.38194  eV     1   --> A''            
     e(  8 -  8) =     11.40717  eV     1   --> A'             

 **************************************************************************

 **************************************************************************

                    xk=(  -0.96250,   0.53750,   0.00000  )

     Band symmetry, C_s (m)     point group:

     e(  1 -  1) =     -1.60430  eV     1   --> A'             
     e(  2 -  2) =     -1.29331  eV     1   --> A''            
     e(  3 -  3) =      2.23394  eV     1   --> A'             
     e(  4 -  4) =      2.52045  eV     1   --> A''            
     e(  5 -  5) =     10.01079  eV     1   --> A''            
     e(  6 -  6) =     10.53947  eV     1   --> A'             
     e(  7 -  7) =     11.45090  eV     1   --> A''            
     e(  8 -  8) =     11.45856  eV     1   --> A'             

 **************************************************************************

 **************************************************************************

                    xk=(  -0.95625,   0.54375,   0.00000  )

     Band symmetry, C_s (m)     point group:

     e(  1 -  1) =     -1.62845  eV     1   --> A'             
     e(  2 -  2) =     -1.27219  eV     1   --> A''            
     e(  3 -  3) =      2.21538  eV     1   --> A'             
     e(  4 -  4) =      2.55448  eV     1   --> A''            
     e(  5 -  5) =      9.90308  eV     1   --> A''            
     e(  6 -  6) =     10.53731  eV     1   --> A'             
     e(  7 -  7) =     11.51325  eV     1   --> A'             
     e(  8 -  8) =     11.52441  eV     1   --> A''            

 **************************************************************************

 **************************************************************************

                    xk=(  -0.95000,   0.55000,   0.00000  )

     Band symmetry, C_s (m)     point group:

     e(  1 -  1) =     -1.65189  eV     1   --> A'             
     e(  2 -  2) =     -1.25220  eV     1   --> A''            
     e(  3 -  3) =      2.19732  eV     1   --> A'             
     e(  4 -  4) =      2.59023  eV     1   --> A''            
     e(  5 -  5) =      9.79394  eV     1   --> A''            
     e(  6 -  6) =     10.53333  eV     1   --> A'             
     e(  7 -  7) =     11.57081  eV     1   --> A'             
     e(  8 -  8) =     11.60129  eV     1   --> A''            

 **************************************************************************

 **************************************************************************

                    xk=(  -0.94375,   0.55625,   0.00000  )

     Band symmetry, C_s (m)     point group:

     e(  1 -  1) =     -1.67461  eV     1   --> A'             
     e(  2 -  2) =     -1.23332  eV     1   --> A''            
     e(  3 -  3) =      2.17976  eV     1   --> A'             
     e(  4 -  4) =      2.62764  eV     1   --> A''            
     e(  5 -  5) =      9.68417  eV     1   --> A''            
     e(  6 -  6) =     10.52791  eV     1   --> A'             
     e(  7 -  7) =     11.63074  eV     1   --> A'             
     e(  8 -  8) =     11.68074  eV     1   --> A''            

 **************************************************************************

 **************************************************************************

                    xk=(  -0.93750,   0.56250,   0.00000  )

     Band symmetry, C_s (m)     point group:

     e(  1 -  1) =     -1.69663  eV     1   --> A'             
     e(  2 -  2) =     -1.21552  eV     1   --> A''            
     e(  3 -  3) =      2.16271  eV     1   --> A'             
     e(  4 -  4) =      2.66659  eV     1   --> A''            
     e(  5 -  5) =      9.57427  eV     1   --> A''            
     e(  6 -  6) =     10.52137  eV     1   --> A'             
     e(  7 -  7) =     11.69274  eV     1   --> A'             
     e(  8 -  8) =     11.76222  eV     1   --> A''            

 **************************************************************************

 **************************************************************************

                    xk=(  -0.93125,   0.56875,   0.00000  )

     Band symmetry, C_s (m)     point group:

     e(  1 -  1) =     -1.71793  eV     1   --> A'             
     e(  2 -  2) =     -1.19877  eV     1   --> A''            
     e(  3 -  3) =      2.14618  eV     1   --> A'             
     e(  4 -  4) =      2.70705  eV     1   --> A''            
     e(  5 -  5) =      9.46486  eV     1   --> A''            
     e(  6 -  6) =     10.51402  eV     1   --> A'             
     e(  7 -  7) =     11.75661  eV     1   --> A'             
     e(  8 -  8) =     11.84548  eV     1   --> A''            

 **************************************************************************

 **************************************************************************

                    xk=(  -0.92500,   0.57500,   0.00000  )

     Band symmetry, C_s (m)     point group:

     e(  1 -  1) =     -1.73852  eV     1   --> A'             
     e(  2 -  2) =     -1.18305  eV     1   --> A''            
     e(  3 -  3) =      2.13015  eV     1   --> A'             
     e(  4 -  4) =      2.74889  eV     1   --> A''            
     e(  5 -  5) =      9.35610  eV     1   --> A''            
     e(  6 -  6) =     10.50601  eV     1   --> A'             
     e(  7 -  7) =     11.82198  eV     1   --> A'             
     e(  8 -  8) =     11.93010  eV     1   --> A''            

 **************************************************************************

 **************************************************************************

                    xk=(  -0.91875,   0.58125,   0.00000  )

     Band symmetry, C_s (m)     point group:

     e(  1 -  1) =     -1.75839  eV     1   --> A'             
     e(  2 -  2) =     -1.16831  eV     1   --> A''            
     e(  3 -  3) =      2.11465  eV     1   --> A'             
     e(  4 -  4) =      2.79201  eV     1   --> A''            
     e(  5 -  5) =      9.24831  eV     1   --> A''            
     e(  6 -  6) =     10.49757  eV     1   --> A'             
     e(  7 -  7) =     11.88874  eV     1   --> A'             
     e(  8 -  8) =     12.01596  eV     1   --> A''            

 **************************************************************************

 **************************************************************************

                    xk=(  -0.91250,   0.58750,   0.00000  )

     Band symmetry, C_s (m)     point group:

     e(  1 -  1) =     -1.77755  eV     1   --> A'             
     e(  2 -  2) =     -1.15453  eV     1   --> A''            
     e(  3 -  3) =      2.09969  eV     1   --> A'             
     e(  4 -  4) =      2.83630  eV     1   --> A''            
     e(  5 -  5) =      9.14168  eV     1   --> A''            
     e(  6 -  6) =     10.48885  eV     1   --> A'             
     e(  7 -  7) =     11.95670  eV     1   --> A'             
     e(  8 -  8) =     12.10292  eV     1   --> A''            

 **************************************************************************

 **************************************************************************

                    xk=(  -0.90625,   0.59375,   0.00000  )

     Band symmetry, C_s (m)     point group:

     e(  1 -  1) =     -1.79599  eV     1   --> A'             
     e(  2 -  2) =     -1.14167  eV     1   --> A''            
     e(  3 -  3) =      2.08526  eV     1   --> A'             
     e(  4 -  4) =      2.88165  eV     1   --> A''            
     e(  5 -  5) =      9.03640  eV     1   --> A''            
     e(  6 -  6) =     10.47996  eV     1   --> A'             
     e(  7 -  7) =     12.02572  eV     1   --> A'             
     e(  8 -  8) =     12.19086  eV     1   --> A''            

 **************************************************************************

 **************************************************************************

                    xk=(  -0.90000,   0.60000,   0.00000  )

     Band symmetry, C_s (m)     point group:

     e(  1 -  1) =     -1.81371  eV     1   --> A'             
     e(  2 -  2) =     -1.12968  eV     1   --> A''            
     e(  3 -  3) =      2.07136  eV     1   --> A'             
     e(  4 -  4) =      2.92792  eV     1   --> A''            
     e(  5 -  5) =      8.93265  eV     1   --> A''            
     e(  6 -  6) =     10.47100  eV     1   --> A'             
     e(  7 -  7) =     12.09567  eV     1   --> A'             
     e(  8 -  8) =     12.27971  eV     1   --> A''            

 **************************************************************************

 **************************************************************************

                    xk=(  -0.89375,   0.60625,   0.00000  )

     Band symmetry, C_s (m)     point group:

     e(  1 -  1) =     -1.83071  eV     1   --> A'             
     e(  2 -  2) =     -1.11854  eV     1   --> A''            
     e(  3 -  3) =      2.05800  eV     1   --> A'             
     e(  4 -  4) =      2.97498  eV     1   --> A''            
     e(  5 -  5) =      8.83058  eV     1   --> A''            
     e(  6 -  6) =     10.46206  eV     1   --> A'             
     e(  7 -  7) =     12.16645  eV     1   --> A'             
     e(  8 -  8) =     12.36938  eV     1   --> A''            

 **************************************************************************

 **************************************************************************

                    xk=(  -0.88750,   0.61250,   0.00000  )

     Band symmetry, C_s (m)     point group:

     e(  1 -  1) =     -1.84700  eV     1   --> A'             
     e(  2 -  2) =     -1.10820  eV     1   --> A''            
     e(  3 -  3) =      2.04519  eV     1   --> A'             
     e(  4 -  4) =      3.02267  eV     1   --> A''            
     e(  5 -  5) =      8.73036  eV     1   --> A''            
     e(  6 -  6) =     10.45321  eV     1   --> A'             
     e(  7 -  7) =     12.23796  eV     1   --> A'             
     e(  8 -  8) =     12.45983  eV     1   --> A''            

 **************************************************************************

 **************************************************************************

                    xk=(  -0.88125,   0.61875,   0.00000  )

     Band symmetry, C_s (m)     point group:

     e(  1 -  1) =     -1.86256  eV     1   --> A'             
     e(  2 -  2) =     -1.09863  eV     1   --> A''            
     e(  3 -  3) =      2.03292  eV     1   --> A'             
     e(  4 -  4) =      3.07085  eV     1   --> A''            
     e(  5 -  5) =      8.63217  eV     1   --> A''            
     e(  6 -  6) =     10.44450  eV     1   --> A'             
     e(  7 -  7) =     12.31013  eV     1   --> A'             
     e(  8 -  8) =     12.55102  eV     1   --> A''            

 **************************************************************************

 **************************************************************************

                    xk=(  -0.87500,   0.62500,   0.00000  )

     Band symmetry, C_s (m)     point group:

     e(  1 -  1) =     -1.87741  eV     1   --> A'             
     e(  2 -  2) =     -1.08978  eV     1   --> A''            
     e(  3 -  3) =      2.02120  eV     1   --> A'             
     e(  4 -  4) =      3.11932  eV     1   --> A''            
     e(  5 -  5) =      8.53614  eV     1   --> A''            
     e(  6 -  6) =     10.43600  eV     1   --> A'             
     e(  7 -  7) =     12.38286  eV     1   --> A'             
     e(  8 -  8) =     12.64286  eV     1   --> A''            

 **************************************************************************

 **************************************************************************

                    xk=(  -0.86875,   0.63125,   0.00000  )

     Band symmetry, C_s (m)     point group:

     e(  1 -  1) =     -1.89153  eV     1   --> A'             
     e(  2 -  2) =     -1.08163  eV     1   --> A''            
     e(  3 -  3) =      2.01004  eV     1   --> A'             
     e(  4 -  4) =      3.16792  eV     1   --> A''            
     e(  5 -  5) =      8.44246  eV     1   --> A''            
     e(  6 -  6) =     10.42774  eV     1   --> A'             
     e(  7 -  7) =     12.45610  eV     1   --> A'             
     e(  8 -  8) =     12.73534  eV     1   --> A''            

 **************************************************************************

 **************************************************************************

                    xk=(  -0.86250,   0.63750,   0.00000  )

     Band symmetry, C_s (m)     point group:

     e(  1 -  1) =     -1.90493  eV     1   --> A'             
     e(  2 -  2) =     -1.07413  eV     1   --> A''            
     e(  3 -  3) =      1.99943  eV     1   --> A'             
     e(  4 -  4) =      3.21644  eV     1   --> A''            
     e(  5 -  5) =      8.35121  eV     1   --> A''            
     e(  6 -  6) =     10.41975  eV     1   --> A'             
     e(  7 -  7) =     12.52975  eV     1   --> A'             
     e(  8 -  8) =     12.82842  eV     1   --> A''            

 **************************************************************************

 **************************************************************************

                    xk=(  -0.85625,   0.64375,   0.00000  )

     Band symmetry, C_s (m)     point group:

     e(  1 -  1) =     -1.91761  eV     1   --> A'             
     e(  2 -  2) =     -1.06725  eV     1   --> A''            
     e(  3 -  3) =      1.98939  eV     1   --> A'             
     e(  4 -  4) =      3.26469  eV     1   --> A''            
     e(  5 -  5) =      8.26278  eV     1   --> A''            
     e(  6 -  6) =     10.41207  eV     1   --> A'             
     e(  7 -  7) =     12.60380  eV     1   --> A'             
     e(  8 -  8) =     12.92207  eV     1   --> A''            

 **************************************************************************

 **************************************************************************

                    xk=(  -0.85000,   0.65000,   0.00000  )

     Band symmetry, C_s (m)     point group:

     e(  1 -  1) =     -1.92957  eV     1   --> A'             
     e(  2 -  2) =     -1.06095  eV     1   --> A''            
     e(  3 -  3) =      1.97989  eV     1   --> A'             
     e(  4 -  4) =      3.31243  eV     1   --> A''            
     e(  5 -  5) =      8.17728  eV     1   --> A''            
     e(  6 -  6) =     10.40468  eV     1   --> A'             
     e(  7 -  7) =     12.67809  eV     1   --> A'             
     e(  8 -  8) =     13.01623  eV     1   --> A''            

 **************************************************************************

 **************************************************************************

                    xk=(  -0.84375,   0.65625,   0.00000  )

     Band symmetry, C_s (m)     point group:

     e(  1 -  1) =     -1.94081  eV     1   --> A'             
     e(  2 -  2) =     -1.05521  eV     1   --> A''            
     e(  3 -  3) =      1.97097  eV     1   --> A'             
     e(  4 -  4) =      3.35944  eV     1   --> A''            
     e(  5 -  5) =      8.09492  eV     1   --> A''            
     e(  6 -  6) =     10.39769  eV     1   --> A'             
     e(  7 -  7) =     12.75260  eV     1   --> A'             
     e(  8 -  8) =     13.11090  eV     1   --> A''            

 **************************************************************************

 **************************************************************************

                    xk=(  -0.83750,   0.66250,   0.00000  )

     Band symmetry, C_s (m)     point group:

     e(  1 -  1) =     -1.95133  eV     1   --> A'             
     e(  2 -  2) =     -1.04998  eV     1   --> A''            
     e(  3 -  3) =      1.96261  eV     1   --> A'             
     e(  4 -  4) =      3.40545  eV     1   --> A''            
     e(  5 -  5) =      8.01589  eV     1   --> A''            
     e(  6 -  6) =     10.39109  eV     1   --> A'             
     e(  7 -  7) =     12.82721  eV     1   --> A'             
     e(  8 -  8) =     13.20600  eV     1   --> A''            

 **************************************************************************

 **************************************************************************

                    xk=(  -0.83125,   0.66875,   0.00000  )

     Band symmetry, C_s (m)     point group:

     e(  1 -  1) =     -1.96112  eV     1   --> A'             
     e(  2 -  2) =     -1.04525  eV     1   --> A''            
     e(  3 -  3) =      1.95482  eV     1   --> A'             
     e(  4 -  4) =      3.45021  eV     1   --> A''            
     e(  5 -  5) =      7.94054  eV     1   --> A''            
     e(  6 -  6) =     10.38488  eV     1   --> A'             
     e(  7 -  7) =     12.90187  eV     1   --> A'             
     e(  8 -  8) =     13.30155  eV     1   --> A''            

 **************************************************************************

 **************************************************************************

                    xk=(  -0.82500,   0.67500,   0.00000  )

     Band symmetry, C_s (m)     point group:

     e(  1 -  1) =     -1.97018  eV     1   --> A'             
     e(  2 -  2) =     -1.04098  eV     1   --> A''            
     e(  3 -  3) =      1.94760  eV     1   --> A'             
     e(  4 -  4) =      3.49344  eV     1   --> A''            
     e(  5 -  5) =      7.86906  eV     1   --> A''            
     e(  6 -  6) =     10.37908  eV     1   --> A'             
     e(  7 -  7) =     12.97645  eV     1   --> A'             
     e(  8 -  8) =     13.39748  eV     1   --> A''            

 **************************************************************************

 **************************************************************************

                    xk=(  -0.81875,   0.68125,   0.00000  )

     Band symmetry, C_s (m)     point group:

     e(  1 -  1) =     -1.97852  eV     1   --> A'             
     e(  2 -  2) =     -1.03715  eV     1   --> A''            
     e(  3 -  3) =      1.94095  eV     1   --> A'             
     e(  4 -  4) =      3.53486  eV     1   --> A''            
     e(  5 -  5) =      7.80175  eV     1   --> A''            
     e(  6 -  6) =     10.37371  eV     1   --> A'             
     e(  7 -  7) =     13.05086  eV     1   --> A'             
     e(  8 -  8) =     13.49382  eV     1   --> A''            

 **************************************************************************

 **************************************************************************

                    xk=(  -0.81250,   0.68750,   0.00000  )

     Band symmetry, C_s (m)     point group:

     e(  1 -  1) =     -1.98614  eV     1   --> A'             
     e(  2 -  2) =     -1.03373  eV     1   --> A''            
     e(  3 -  3) =      1.93488  eV     1   --> A'             
     e(  4 -  4) =      3.57413  eV     1   --> A''            
     e(  5 -  5) =      7.73889  eV     1   --> A''            
     e(  6 -  6) =     10.36877  eV     1   --> A'             
     e(  7 -  7) =     13.12486  eV     1   --> A'             
     e(  8 -  8) =     13.59035  eV     1   --> A''            

 **************************************************************************

 **************************************************************************

                    xk=(  -0.80625,   0.69375,   0.00000  )

     Band symmetry, C_s (m)     point group:

     e(  1 -  1) =     -1.99304  eV     1   --> A'             
     e(  2 -  2) =     -1.03070  eV     1   --> A''            
     e(  3 -  3) =      1.92938  eV     1   --> A'             
     e(  4 -  4) =      3.61095  eV     1   --> A''            
     e(  5 -  5) =      7.68076  eV     1   --> A''            
     e(  6 -  6) =     10.36427  eV     1   --> A'             
     e(  7 -  7) =     13.19827  eV     1   --> A'             
     e(  8 -  8) =     13.68708  eV     1   --> A''            

 **************************************************************************

 **************************************************************************

                    xk=(  -0.80000,   0.70000,   0.00000  )

     Band symmetry, C_s (m)     point group:

     e(  1 -  1) =     -1.99920  eV     1   --> A'             
     e(  2 -  2) =     -1.02805  eV     1   --> A''            
     e(  3 -  3) =      1.92445  eV     1   --> A'             
     e(  4 -  4) =      3.64502  eV     1   --> A''            
     e(  5 -  5) =      7.62768  eV     1   --> A''            
     e(  6 -  6) =     10.36023  eV     1   --> A'             
     e(  7 -  7) =     13.27080  eV     1   --> A'             
     e(  8 -  8) =     13.78391  eV     1   --> A''            

 **************************************************************************

 **************************************************************************

                    xk=(  -0.79375,   0.70625,   0.00000  )

     Band symmetry, C_s (m)     point group:

     e(  1 -  1) =     -2.00464  eV     1   --> A'             
     e(  2 -  2) =     -1.02575  eV     1   --> A''            
     e(  3 -  3) =      1.92010  eV     1   --> A'             
     e(  4 -  4) =      3.67603  eV     1   --> A''            
     e(  5 -  5) =      7.57997  eV     1   --> A''            
     e(  6 -  6) =     10.35665  eV     1   --> A'             
     e(  7 -  7) =     13.34206  eV     1   --> A'             
     e(  8 -  8) =     13.88070  eV     1   --> A''            

 **************************************************************************

 **************************************************************************

                    xk=(  -0.78750,   0.71250,   0.00000  )

     Band symmetry, C_s (m)     point group:

     e(  1 -  1) =     -2.00936  eV     1   --> A'             
     e(  2 -  2) =     -1.02379  eV     1   --> A''            
     e(  3 -  3) =      1.91633  eV     1   --> A'             
     e(  4 -  4) =      3.70363  eV     1   --> A''            
     e(  5 -  5) =      7.53788  eV     1   --> A''            
     e(  6 -  6) =     10.35353  eV     1   --> A'             
     e(  7 -  7) =     13.41142  eV     1   --> A'             
     e(  8 -  8) =     13.97724  eV     1   --> A''            

 **************************************************************************

 **************************************************************************

                    xk=(  -0.78125,   0.71875,   0.00000  )

     Band symmetry, C_s (m)     point group:

     e(  1 -  1) =     -2.01336  eV     1   --> A'             
     e(  2 -  2) =     -1.02216  eV     1   --> A''            
     e(  3 -  3) =      1.91314  eV     1   --> A'             
     e(  4 -  4) =      3.72754  eV     1   --> A''            
     e(  5 -  5) =      7.50161  eV     1   --> A''            
     e(  6 -  6) =     10.35088  eV     1   --> A'             
     e(  7 -  7) =     13.47797  eV     1   --> A'             
     e(  8 -  8) =     14.07319  eV     1   --> A''            

 **************************************************************************

 **************************************************************************

                    xk=(  -0.77500,   0.72500,   0.00000  )

     Band symmetry, C_s (m)     point group:

     e(  1 -  1) =     -2.01662  eV     1   --> A'             
     e(  2 -  2) =     -1.02083  eV     1   --> A''            
     e(  3 -  3) =      1.91052  eV     1   --> A'             
     e(  4 -  4) =      3.74753  eV     1   --> A''            
     e(  5 -  5) =      7.47162  eV     1   --> A''            
     e(  6 -  6) =     10.34871  eV     1   --> A'             
     e(  7 -  7) =     13.54031  eV     1   --> A'             
     e(  8 -  8) =     14.16789  eV     1   --> A''            

 **************************************************************************

 **************************************************************************

                    xk=(  -0.76875,   0.73125,   0.00000  )

     Band symmetry, C_s (m)     point group:

     e(  1 -  1) =     -2.01916  eV     1   --> A'             
     e(  2 -  2) =     -1.01981  eV     1   --> A''            
     e(  3 -  3) =      1.90849  eV     1   --> A'             
     e(  4 -  4) =      3.76334  eV     1   --> A''            
     e(  5 -  5) =      7.44803  eV     1   --> A''            
     e(  6 -  6) =     10.34702  eV     1   --> A'             
     e(  7 -  7) =     13.59620  eV     1   --> A'             
     e(  8 -  8) =     14.26004  eV     1   --> A''            

 **************************************************************************

 **************************************************************************

                    xk=(  -0.76250,   0.73750,   0.00000  )

     Band symmetry, C_s (m)     point group:

     e(  1 -  1) =     -2.02098  eV     1   --> A'             
     e(  2 -  2) =     -1.01909  eV     1   --> A''            
     e(  3 -  3) =      1.90704  eV     1   --> A'             
     e(  4 -  4) =      3.77478  eV     1   --> A''            
     e(  5 -  5) =      7.43105  eV     1   --> A''            
     e(  6 -  6) =     10.34581  eV     1   --> A'             
     e(  7 -  7) =     13.64213  eV     1   --> A'             
     e(  8 -  8) =     14.27510  eV     1   --> A'             

 **************************************************************************

 **************************************************************************

                    xk=(  -0.75625,   0.74375,   0.00000  )

     Band symmetry, C_s (m)     point group:

     e(  1 -  1) =     -2.02207  eV     1   --> A'             
     e(  2 -  2) =     -1.01866  eV     1   --> A''            
     e(  3 -  3) =      1.90617  eV     1   --> A'             
     e(  4 -  4) =      3.78171  eV     1   --> A''            
     e(  5 -  5) =      7.42080  eV     1   --> A''            
     e(  6 -  6) =     10.34508  eV     1   --> A'             
     e(  7 -  7) =     13.67323  eV     1   --> A'             
     e(  8 -  8) =     14.24418  eV     1   --> A'             

 **************************************************************************

 **************************************************************************

                    xk=(  -0.75000,   0.75000,   0.00000  )

     point group C_2v (mm2) 
     there are  4 classes
     the character table:

       E     C2    s_v   s_v' 
A_1    1.00  1.00  1.00  1.00
A_2    1.00  1.00 -1.00 -1.00
B_1    1.00 -1.00  1.00 -1.00
B_2    1.00 -1.00 -1.00  1.00

     the symmetry operations in each class and the name of the first element:

     E        1
                                                                 
     C2       2
                                                                 
     s_v      4
                                                                 
     s_v'     3
                                                                 

     Band symmetry, C_2v (mm2)  point group:

     e(  1 -  1) =     -2.02243  eV     1   --> A_1  D_1  S_1  
     e(  2 -  2) =     -1.01852  eV     1   --> B_1  D_3  S_3  
     e(  3 -  3) =      1.90588  eV     1   --> A_1  D_1  S_1  
     e(  4 -  4) =      3.78403  eV     1   --> A_2  D_2  S_2  
     e(  5 -  5) =      7.41737  eV     1   --> B_1  D_3  S_3  
     e(  6 -  6) =     10.34484  eV     1   --> A_1  D_1  S_1  
     e(  7 -  7) =     13.68438  eV     1   --> B_2  D_4  S_4  
     e(  8 -  8) =     14.23309  eV     1   --> A_1  D_1  S_1  

 **************************************************************************

 **************************************************************************

                    xk=(  -0.73125,   0.73125,   0.00000  )

     Band symmetry, C_2v (mm2)  point group:

     e(  1 -  1) =     -2.11139  eV     1   --> A_1  D_1  S_1  
     e(  2 -  2) =     -0.92699  eV     1   --> B_1  D_3  S_3  
     e(  3 -  3) =      1.84942  eV     1   --> A_1  D_1  S_1  
     e(  4 -  4) =      3.84819  eV     1   --> A_2  D_2  S_2  
     e(  5 -  5) =      7.49174  eV     1   --> B_1  D_3  S_3  
     e(  6 -  6) =     10.72486  eV     1   --> A_1  D_1  S_1  
     e(  7 -  7) =     13.45402  eV     1   --> B_2  D_4  S_4  
     e(  8 -  8) =     13.99803  eV     1   --> A_1  D_1  S_1  

 **************************************************************************

 **************************************************************************

                    xk=(  -0.71250,   0.71250,   0.00000  )

     Band symmetry, C_2v (mm2)  point group:

     e(  1 -  1) =     -2.21031  eV     1   --> A_1  D_1  S_1  
     e(  2 -  2) =     -0.82894  eV     1   --> B_1  D_3  S_3  
     e(  3 -  3) =      1.81153  eV     1   --> A_1  D_1  S_1  
     e(  4 -  4) =      3.91623  eV     1   --> A_2  D_2  S_2  
     e(  5 -  5) =      7.57061  eV     1   --> B_1  D_3  S_3  
     e(  6 -  6) =     11.10866  eV     1   --> A_1  D_1  S_1  
     e(  7 -  7) =     13.22751  eV     1   --> B_2  D_4  S_4  
     e(  8 -  8) =     13.77196  eV     1   --> A_1  D_1  S_1  

 **************************************************************************

 **************************************************************************

                    xk=(  -0.69375,   0.69375,   0.00000  )

     Band symmetry, C_2v (mm2)  point group:

     e(  1 -  1) =     -2.31848  eV     1   --> A_1  D_1  S_1  
     e(  2 -  2) =     -0.72439  eV     1   --> B_1  D_3  S_3  
     e(  3 -  3) =      1.79200  eV     1   --> A_1  D_1  S_1  
     e(  4 -  4) =      3.98796  eV     1   --> A_2  D_2  S_2  
     e(  5 -  5) =      7.65374  eV     1   --> B_1  D_3  S_3  
     e(  6 -  6) =     11.49176  eV     1   --> A_1  D_1  S_1  
     e(  7 -  7) =     13.00521  eV     1   --> B_2  D_4  S_4  
     e(  8 -  8) =     13.55864  eV     1   --> A_1  D_1  S_1  

 **************************************************************************

 **************************************************************************

                    xk=(  -0.67500,   0.67500,   0.00000  )

     Band symmetry, C_2v (mm2)  point group:

     e(  1 -  1) =     -2.43496  eV     1   --> A_1  D_1  S_1  
     e(  2 -  2) =     -0.61338  eV     1   --> B_1  D_3  S_3  
     e(  3 -  3) =      1.79025  eV     1   --> A_1  D_1  S_1  
     e(  4 -  4) =      4.06317  eV     1   --> A_2  D_2  S_2  
     e(  5 -  5) =      7.74084  eV     1   --> B_1  D_3  S_3  
     e(  6 -  6) =     11.86404  eV     1   --> A_1  D_1  S_1  
     e(  7 -  7) =     12.78738  eV     1   --> B_2  D_4  S_4  
     e(  8 -  8) =     13.36714  eV     1   --> A_1  D_1  S_1  

 **************************************************************************

 **************************************************************************

                    xk=(  -0.65625,   0.65625,   0.00000  )

     Band symmetry, C_2v (mm2)  point group:

     e(  1 -  1) =     -2.55861  eV     1   --> A_1  D_1  S_1  
     e(  2 -  2) =     -0.49592  eV     1   --> B_1  D_3  S_3  
     e(  3 -  3) =      1.80548  eV     1   --> A_1  D_1  S_1  
     e(  4 -  4) =      4.14165  eV     1   --> A_2  D_2  S_2  
     e(  5 -  5) =      7.83163  eV     1   --> B_1  D_3  S_3  
     e(  6 -  6) =     12.19668  eV     1   --> A_1  D_1  S_1  
     e(  7 -  7) =     12.57430  eV     1   --> B_2  D_4  S_4  
     e(  8 -  8) =     13.22595  eV     1   --> A_1  D_1  S_1  

 **************************************************************************

 **************************************************************************

                    xk=(  -0.63750,   0.63750,   0.00000  )

     Band symmetry, C_2v (mm2)  point group:

     e(  1 -  1) =     -2.68820  eV     1   --> A_1  D_1  S_1  
     e(  2 -  2) =     -0.37206  eV     1   --> B_1  D_3  S_3  
     e(  3 -  3) =      1.83669  eV     1   --> A_1  D_1  S_1  
     e(  4 -  4) =      4.22315  eV     1   --> A_2  D_2  S_2  
     e(  5 -  5) =      7.92573  eV     1   --> B_1  D_3  S_3  
     e(  6 -  6) =     12.36614  eV     1   --> B_2  D_4  S_4  
     e(  7 -  7) =     12.40252  eV     1   --> A_1  D_1  S_1  
     e(  8 -  8) =     13.22115  eV     1   --> A_1  D_1  S_1  

 **************************************************************************

 **************************************************************************

                    xk=(  -0.61875,   0.61875,   0.00000  )

     Band symmetry, C_2v (mm2)  point group:

     e(  1 -  1) =     -2.82246  eV     1   --> A_1  D_1  S_1  
[...]

 **************************************************************************

                    xk=(  -0.12500,   0.12500,   0.12500  )

     Band symmetry, C_3v (3m)   point group:

     e(  1 -  1) =     -5.55078  eV     1   --> A_1  L_1       
     e(  2 -  2) =      4.61236  eV     1   --> A_1  L_1       
     e(  3 -  4) =      5.92299  eV     2   --> E    L_3       
     e(  5 -  5) =      8.71538  eV     1   --> A_1  L_1       
     e(  6 -  7) =      9.20015  eV     2   --> E    L_3       
     e(  8 -  8) =     10.92681  eV     1   --> A_1  L_1       

 **************************************************************************

 **************************************************************************

                    xk=(  -0.13750,   0.13750,   0.13750  )

     Band symmetry, C_3v (3m)   point group:

     e(  1 -  1) =     -5.50820  eV     1   --> A_1  L_1       
     e(  2 -  2) =      4.37949  eV     1   --> A_1  L_1       
     e(  3 -  4) =      5.87525  eV     2   --> E    L_3       
     e(  5 -  5) =      8.67307  eV     1   --> A_1  L_1       
     e(  6 -  7) =      9.26838  eV     2   --> E    L_3       
     e(  8 -  8) =     11.14663  eV     1   --> A_1  L_1       

 **************************************************************************

 **************************************************************************

                    xk=(  -0.15000,   0.15000,   0.15000  )

     Band symmetry, C_3v (3m)   point group:

     e(  1 -  1) =     -5.46170  eV     1   --> A_1  L_1       
     e(  2 -  2) =      4.14442  eV     1   --> A_1  L_1       
     e(  3 -  4) =      5.82664  eV     2   --> E    L_3       
     e(  5 -  5) =      8.62794  eV     1   --> A_1  L_1       
     e(  6 -  7) =      9.33617  eV     2   --> E    L_3       
     e(  8 -  8) =     11.36954  eV     1   --> A_1  L_1       

 **************************************************************************

 **************************************************************************

                    xk=(  -0.16250,   0.16250,   0.16250  )

     Band symmetry, C_3v (3m)   point group:

     e(  1 -  1) =     -5.41132  eV     1   --> A_1  L_1       
     e(  2 -  2) =      3.90834  eV     1   --> A_1  L_1       
     e(  3 -  4) =      5.77765  eV     2   --> E    L_3       
     e(  5 -  5) =      8.58082  eV     1   --> A_1  L_1       
     e(  6 -  7) =      9.40214  eV     2   --> E    L_3       
     e(  8 -  8) =     11.59409  eV     1   --> A_1  L_1       

 **************************************************************************

 **************************************************************************

                    xk=(  -0.17500,   0.17500,   0.17500  )

     Band symmetry, C_3v (3m)   point group:

     e(  1 -  1) =     -5.35710  eV     1   --> A_1  L_1       
     e(  2 -  2) =      3.67202  eV     1   --> A_1  L_1       
     e(  3 -  4) =      5.72855  eV     2   --> E    L_3       
     e(  5 -  5) =      8.53244  eV     1   --> A_1  L_1       
     e(  6 -  7) =      9.46498  eV     2   --> E    L_3       
     e(  8 -  8) =     11.81929  eV     1   --> A_1  L_1       

 **************************************************************************

 **************************************************************************

                    xk=(  -0.18750,   0.18750,   0.18750  )

     Band symmetry, C_3v (3m)   point group:

     e(  1 -  1) =     -5.29910  eV     1   --> A_1  L_1       
     e(  2 -  2) =      3.43618  eV     1   --> A_1  L_1       
     e(  3 -  4) =      5.67993  eV     2   --> E    L_3       
     e(  5 -  5) =      8.48337  eV     1   --> A_1  L_1       
     e(  6 -  7) =      9.52349  eV     2   --> E    L_3       
     e(  8 -  8) =     12.04422  eV     1   --> A_1  L_1       

 **************************************************************************

 **************************************************************************

                    xk=(  -0.20000,   0.20000,   0.20000  )

     Band symmetry, C_3v (3m)   point group:

     e(  1 -  1) =     -5.23738  eV     1   --> A_1  L_1       
     e(  2 -  2) =      3.20141  eV     1   --> A_1  L_1       
     e(  3 -  4) =      5.63197  eV     2   --> E    L_3       
     e(  5 -  5) =      8.43413  eV     1   --> A_1  L_1       
     e(  6 -  7) =      9.57659  eV     2   --> E    L_3       
     e(  8 -  8) =     12.26815  eV     1   --> A_1  L_1       

 **************************************************************************

 **************************************************************************

                    xk=(  -0.21250,   0.21250,   0.21250  )

     Band symmetry, C_3v (3m)   point group:

     e(  1 -  1) =     -5.17201  eV     1   --> A_1  L_1       
     e(  2 -  2) =      2.96820  eV     1   --> A_1  L_1       
     e(  3 -  4) =      5.58490  eV     2   --> E    L_3       
     e(  5 -  5) =      8.38512  eV     1   --> A_1  L_1       
     e(  6 -  7) =      9.62320  eV     2   --> E    L_3       
     e(  8 -  8) =     12.49024  eV     1   --> A_1  L_1       

 **************************************************************************

 **************************************************************************

                    xk=(  -0.22500,   0.22500,   0.22500  )

     Band symmetry, C_3v (3m)   point group:

     e(  1 -  1) =     -5.10309  eV     1   --> A_1  L_1       
     e(  2 -  2) =      2.73702  eV     1   --> A_1  L_1       
     e(  3 -  4) =      5.53901  eV     2   --> E    L_3       
     e(  5 -  5) =      8.33675  eV     1   --> A_1  L_1       
     e(  6 -  7) =      9.66275  eV     2   --> E    L_3       
     e(  8 -  8) =     12.70966  eV     1   --> A_1  L_1       

 **************************************************************************

 **************************************************************************

                    xk=(  -0.23750,   0.23750,   0.23750  )

     Band symmetry, C_3v (3m)   point group:

     e(  1 -  1) =     -5.03071  eV     1   --> A_1  L_1       
     e(  2 -  2) =      2.50826  eV     1   --> A_1  L_1       
     e(  3 -  4) =      5.49444  eV     2   --> E    L_3       
     e(  5 -  5) =      8.28925  eV     1   --> A_1  L_1       
     e(  6 -  7) =      9.69476  eV     2   --> E    L_3       
     e(  8 -  8) =     12.92520  eV     1   --> A_1  L_1       

 **************************************************************************

 **************************************************************************

                    xk=(  -0.25000,   0.25000,   0.25000  )

     Band symmetry, C_3v (3m)   point group:

     e(  1 -  1) =     -4.95498  eV     1   --> A_1  L_1       
     e(  2 -  2) =      2.28230  eV     1   --> A_1  L_1       
     e(  3 -  4) =      5.45136  eV     2   --> E    L_3       
     e(  5 -  5) =      8.24291  eV     1   --> A_1  L_1       
     e(  6 -  7) =      9.71914  eV     2   --> E    L_3       
     e(  8 -  8) =     13.13527  eV     1   --> A_1  L_1       

 **************************************************************************

 **************************************************************************

                    xk=(  -0.26250,   0.26250,   0.26250  )

     Band symmetry, C_3v (3m)   point group:

     e(  1 -  1) =     -4.87604  eV     1   --> A_1  L_1       
     e(  2 -  2) =      2.05945  eV     1   --> A_1  L_1       
     e(  3 -  4) =      5.40992  eV     2   --> E    L_3       
     e(  5 -  5) =      8.19797  eV     1   --> A_1  L_1       
     e(  6 -  7) =      9.73605  eV     2   --> E    L_3       
     e(  8 -  8) =     13.33750  eV     1   --> A_1  L_1       

 **************************************************************************

 **************************************************************************

                    xk=(  -0.27500,   0.27500,   0.27500  )

     Band symmetry, C_3v (3m)   point group:

     e(  1 -  1) =     -4.79405  eV     1   --> A_1  L_1       
     e(  2 -  2) =      1.84015  eV     1   --> A_1  L_1       
     e(  3 -  4) =      5.37021  eV     2   --> E    L_3       
     e(  5 -  5) =      8.15460  eV     1   --> A_1  L_1       
     e(  6 -  7) =      9.74590  eV     2   --> E    L_3       
     e(  8 -  8) =     13.52829  eV     1   --> A_1  L_1       

 **************************************************************************

 **************************************************************************

                    xk=(  -0.28750,   0.28750,   0.28750  )

     Band symmetry, C_3v (3m)   point group:

     e(  1 -  1) =     -4.70919  eV     1   --> A_1  L_1       
     e(  2 -  2) =      1.62471  eV     1   --> A_1  L_1       
     e(  3 -  4) =      5.33234  eV     2   --> E    L_3       
     e(  5 -  5) =      8.11297  eV     1   --> A_1  L_1       
     e(  6 -  7) =      9.74935  eV     2   --> E    L_3       
     e(  8 -  8) =     13.69530  eV     1   -->   ?

 **************************************************************************

 **************************************************************************

                    xk=(  -0.30000,   0.30000,   0.30000  )

     Band symmetry, C_3v (3m)   point group:

     e(  1 -  1) =     -4.62168  eV     1   --> A_1  L_1       
     e(  2 -  2) =      1.41350  eV     1   --> A_1  L_1       
     e(  3 -  4) =      5.29639  eV     2   --> E    L_3       
     e(  5 -  5) =      8.07322  eV     1   --> A_1  L_1       
     e(  6 -  7) =      9.74716  eV     2   --> E    L_3       
     e(  8 -  8) =     13.81762  eV     1   -->   ?

 **************************************************************************

 **************************************************************************

                    xk=(  -0.31250,   0.31250,   0.31250  )

     Band symmetry, C_3v (3m)   point group:

     e(  1 -  1) =     -4.53180  eV     1   --> A_1  L_1       
     e(  2 -  2) =      1.20691  eV     1   --> A_1  L_1       
     e(  3 -  4) =      5.26242  eV     2   --> E    L_3       
     e(  5 -  5) =      8.03547  eV     1   --> A_1  L_1       
     e(  6 -  7) =      9.74022  eV     2   --> E    L_3       
     e(  8 -  8) =     13.95354  eV     1   -->   ?

 **************************************************************************

 **************************************************************************

                    xk=(  -0.32500,   0.32500,   0.32500  )

     Band symmetry, C_3v (3m)   point group:

     e(  1 -  1) =     -4.43986  eV     1   --> A_1  L_1       
     e(  2 -  2) =      1.00538  eV     1   --> A_1  L_1       
     e(  3 -  4) =      5.23049  eV     2   --> E    L_3       
     e(  5 -  5) =      7.99984  eV     1   --> A_1  L_1       
     e(  6 -  7) =      9.72944  eV     2   --> E    L_3       
     e(  8 -  8) =     14.05202  eV     1   --> A_1  L_1       

 **************************************************************************

 **************************************************************************

                    xk=(  -0.33750,   0.33750,   0.33750  )

     Band symmetry, C_3v (3m)   point group:

     e(  1 -  1) =     -4.34626  eV     1   --> A_1  L_1       
     e(  2 -  2) =      0.80938  eV     1   --> A_1  L_1       
     e(  3 -  4) =      5.20058  eV     2   --> E    L_3       
     e(  5 -  5) =      7.96633  eV     1   --> A_1  L_1       
     e(  6 -  7) =      9.71562  eV     2   --> E    L_3       
     e(  8 -  8) =     14.09809  eV     1   --> A_1  L_1       

 **************************************************************************

 **************************************************************************

                    xk=(  -0.35000,   0.35000,   0.35000  )

     Band symmetry, C_3v (3m)   point group:

     e(  1 -  1) =     -4.25146  eV     1   --> A_1  L_1       
     e(  2 -  2) =      0.61948  eV     1   --> A_1  L_1       
     e(  3 -  4) =      5.17284  eV     2   --> E    L_3       
     e(  5 -  5) =      7.93512  eV     1   --> A_1  L_1       
     e(  6 -  7) =      9.69974  eV     2   --> E    L_3       
     e(  8 -  8) =     14.11609  eV     1   --> A_1  L_1       

 **************************************************************************

 **************************************************************************

                    xk=(  -0.36250,   0.36250,   0.36250  )

     Band symmetry, C_3v (3m)   point group:

     e(  1 -  1) =     -4.15606  eV     1   --> A_1  L_1       
     e(  2 -  2) =      0.43633  eV     1   --> A_1  L_1       
     e(  3 -  4) =      5.14726  eV     2   --> E    L_3       
     e(  5 -  5) =      7.90623  eV     1   --> A_1  L_1       
     e(  6 -  7) =      9.68252  eV     2   --> E    L_3       
     e(  8 -  8) =     14.11490  eV     1   --> A_1  L_1       

 **************************************************************************

 **************************************************************************

                    xk=(  -0.37500,   0.37500,   0.37500  )

     Band symmetry, C_3v (3m)   point group:

     e(  1 -  1) =     -4.06075  eV     1   --> A_1  L_1       
     e(  2 -  2) =      0.26071  eV     1   --> A_1  L_1       
     e(  3 -  4) =      5.12382  eV     2   --> E    L_3       
     e(  5 -  5) =      7.87969  eV     1   --> A_1  L_1       
     e(  6 -  7) =      9.66457  eV     2   --> E    L_3       
     e(  8 -  8) =     14.10195  eV     1   --> A_1  L_1       

 **************************************************************************

 **************************************************************************

                    xk=(  -0.38750,   0.38750,   0.38750  )

     Band symmetry, C_3v (3m)   point group:

     e(  1 -  1) =     -3.96643  eV     1   --> A_1  L_1       
     e(  2 -  2) =      0.09357  eV     1   --> A_1  L_1       
     e(  3 -  4) =      5.10260  eV     2   --> E    L_3       
     e(  5 -  5) =      7.85559  eV     1   --> A_1  L_1       
     e(  6 -  7) =      9.64672  eV     2   --> E    L_3       
     e(  8 -  8) =     14.08259  eV     1   --> A_1  L_1       

 **************************************************************************

 **************************************************************************

                    xk=(  -0.40000,   0.40000,   0.40000  )

     Band symmetry, C_3v (3m)   point group:

     e(  1 -  1) =     -3.87417  eV     1   --> A_1  L_1       
     e(  2 -  2) =     -0.06397  eV     1   --> A_1  L_1       
     e(  3 -  4) =      5.08359  eV     2   --> E    L_3       
     e(  5 -  5) =      7.83394  eV     1   --> A_1  L_1       
     e(  6 -  7) =      9.62940  eV     2   --> E    L_3       
     e(  8 -  8) =     14.06035  eV     1   --> A_1  L_1       

 **************************************************************************

 **************************************************************************

                    xk=(  -0.41250,   0.41250,   0.41250  )

     Band symmetry, C_3v (3m)   point group:

     e(  1 -  1) =     -3.78530  eV     1   --> A_1  L_1       
     e(  2 -  2) =     -0.21054  eV     1   --> A_1  L_1       
     e(  3 -  4) =      5.06679  eV     2   --> E    L_3       
     e(  5 -  5) =      7.81484  eV     1   --> A_1  L_1       
     e(  6 -  7) =      9.61311  eV     2   --> E    L_3       
     e(  8 -  8) =     14.03761  eV     1   --> A_1  L_1       

 **************************************************************************

 **************************************************************************

                    xk=(  -0.42500,   0.42500,   0.42500  )

     Band symmetry, C_3v (3m)   point group:

     e(  1 -  1) =     -3.70142  eV     1   --> A_1  L_1       
     e(  2 -  2) =     -0.34449  eV     1   --> A_1  L_1       
     e(  3 -  4) =      5.05222  eV     2   --> E    L_3       
     e(  5 -  5) =      7.79818  eV     1   --> A_1  L_1       
     e(  6 -  7) =      9.59823  eV     2   --> E    L_3       
     e(  8 -  8) =     14.01587  eV     1   --> A_1  L_1       

 **************************************************************************

 **************************************************************************

                    xk=(  -0.43750,   0.43750,   0.43750  )

     Band symmetry, C_3v (3m)   point group:

     e(  1 -  1) =     -3.62446  eV     1   --> A_1  L_1       
     e(  2 -  2) =     -0.46388  eV     1   --> A_1  L_1       
     e(  3 -  4) =      5.03989  eV     2   --> E    L_3       
     e(  5 -  5) =      7.78406  eV     1   --> A_1  L_1       
     e(  6 -  7) =      9.58511  eV     2   --> E    L_3       
     e(  8 -  8) =     13.99623  eV     1   --> A_1  L_1       

 **************************************************************************

 **************************************************************************

                    xk=(  -0.45000,   0.45000,   0.45000  )

     Band symmetry, C_3v (3m)   point group:

     e(  1 -  1) =     -3.55659  eV     1   --> A_1  L_1       
     e(  2 -  2) =     -0.56649  eV     1   --> A_1  L_1       
     e(  3 -  4) =      5.02979  eV     2   --> E    L_3       
     e(  5 -  5) =      7.77248  eV     1   --> A_1  L_1       
     e(  6 -  7) =      9.57400  eV     2   --> E    L_3       
     e(  8 -  8) =     13.97938  eV     1   --> A_1  L_1       

 **************************************************************************

 **************************************************************************

                    xk=(  -0.46250,   0.46250,   0.46250  )

     Band symmetry, C_3v (3m)   point group:

     e(  1 -  1) =     -3.50022  eV     1   --> A_1  L_1       
     e(  2 -  2) =     -0.64990  eV     1   --> A_1  L_1       
     e(  3 -  4) =      5.02194  eV     2   --> E    L_3       
     e(  5 -  5) =      7.76346  eV     1   --> A_1  L_1       
     e(  6 -  7) =      9.56517  eV     2   --> E    L_3       
     e(  8 -  8) =     13.96586  eV     1   --> A_1  L_1       

 **************************************************************************

 **************************************************************************

                    xk=(  -0.47500,   0.47500,   0.47500  )

     Band symmetry, C_3v (3m)   point group:

     e(  1 -  1) =     -3.45773  eV     1   --> A_1  L_1       
     e(  2 -  2) =     -0.71170  eV     1   --> A_1  L_1       
     e(  3 -  4) =      5.01633  eV     2   --> E    L_3       
     e(  5 -  5) =      7.75702  eV     1   --> A_1  L_1       
     e(  6 -  7) =      9.55873  eV     2   --> E    L_3       
     e(  8 -  8) =     13.95602  eV     1   --> A_1  L_1       

 **************************************************************************

 **************************************************************************

                    xk=(  -0.48750,   0.48750,   0.48750  )

     Band symmetry, C_3v (3m)   point group:

     e(  1 -  1) =     -3.43125  eV     1   --> A_1  L_1       
     e(  2 -  2) =     -0.74978  eV     1   --> A_1  L_1       
     e(  3 -  4) =      5.01296  eV     2   --> E    L_3       
     e(  5 -  5) =      7.75314  eV     1   --> A_1  L_1       
     e(  6 -  7) =      9.55482  eV     2   --> E    L_3       
     e(  8 -  8) =     13.95002  eV     1   --> A_1  L_1       

 **************************************************************************

 **************************************************************************

                    xk=(  -0.50000,   0.50000,   0.50000  )

     zone border point and non-symmorphic group 
     symmetry decomposition not available

 **************************************************************************

     BANDS        :      1.32s CPU      1.41s WALL


   This run was terminated on:  14:13:16   1Nov2025            

=------------------------------------------------------------------------------=
   JOB DONE.
=------------------------------------------------------------------------------=
