
     Program BANDS v.7.4.1 starts on  1Nov2025 at 14:11:59 

     This program is part of the open-source Quantum ESPRESSO suite
     for quantum simulation of materials; please cite
         "P. Giannozzi et al., J. Phys.:Condens. Matter 21 395502 (2009);
         "P. Giannozzi et al., J. Phys.:Condens. Matter 29 465901 (2017);
         "P. Giannozzi et al., J. Chem. Phys. 152 154105 (2020);
          URL http://www.quantum-espresso.org", 
     in publications or presentations arising from this work. More details at
     http://www.quantum-espresso.org/quote

     Parallel version (MPI), running on     2 processors

     MPI processes distributed on     1 nodes
     R & G space division:  proc/nbgrp/npool/nimage =       2
     0 MiB available memory on the printing compute node when the environment starts


     Reading xml data from directory:

     ./tmp_cutoff_30/cutoff_30.save/

     IMPORTANT: XC functional enforced from input :
     Exchange-correlation= PBE
                           (   1   4   3   4   0   0   0)
     Any further DFT definition will be discarded
     Please, verify this is what you really want


     Parallelization info
     --------------------
     sticks:   dense  smooth     PW     G-vecs:    dense   smooth      PW
     Min         429     216     69                 8432     2980     533
     Max         430     217     70                 8433     2981     534
     Sum         859     433    139                16865     5961    1067

     Using Slab Decomposition

     Reading collected, re-writing distributed wavefunctions
     high-symmetry point:  0.0000 0.0000 0.0000   x coordinate   0.0000
     high-symmetry point: -1.0000 0.0000 0.0000   x coordinate   1.0000
     high-symmetry point: -1.0000 0.5000 0.0000   x coordinate   1.5000
     high-symmetry point: -0.7500 0.7500 0.0000   x coordinate   1.8536
     high-symmetry point:  0.0000 0.0000 0.0000   x coordinate   2.9142
     high-symmetry point: -0.5000 0.5000 0.5000   x coordinate   3.7802

     Plottable bands (eV) written to file silicon.bands.dat.gnu
     Bands written to file silicon.bands.dat

 **************************************************************************

                    xk=(   0.00000,   0.00000,   0.00000  )

     point group O_h (m-3m) 
     there are 10 classes
     the character table:

       E     8C3   3C2   6C4   6C2'  i     8S6   3s_h  6S4   6s_d 
A_1g   1.00  1.00  1.00  1.00  1.00  1.00  1.00  1.00  1.00  1.00
A_2g   1.00  1.00  1.00 -1.00 -1.00  1.00  1.00  1.00 -1.00 -1.00
E_g    2.00 -1.00  2.00  0.00  0.00  2.00 -1.00  2.00  0.00  0.00
T_1g   3.00  0.00 -1.00  1.00 -1.00  3.00  0.00 -1.00  1.00 -1.00
T_2g   3.00  0.00 -1.00 -1.00  1.00  3.00  0.00 -1.00 -1.00  1.00
A_1u   1.00  1.00  1.00  1.00  1.00 -1.00 -1.00 -1.00 -1.00 -1.00
A_2u   1.00  1.00  1.00 -1.00 -1.00 -1.00 -1.00 -1.00  1.00  1.00
E_u    2.00 -1.00  2.00  0.00  0.00 -2.00  1.00 -2.00  0.00  0.00
T_1u   3.00  0.00 -1.00  1.00 -1.00 -3.00  0.00  1.00 -1.00  1.00
T_2u   3.00  0.00 -1.00 -1.00  1.00 -3.00  0.00  1.00  1.00 -1.00

     the symmetry operations in each class and the name of the first element:

     E        1
                                                                 
     8C3     17   19   20   18   24   21   22   23
                                                                 
     3C2      2    4    3
                                                                 
     6C4      7    8   15   16   12   11
                                                                 
     6C2'     5    6   14   13   10    9
                                                                 
     i       25
                                                                 
     8S6     41   43   44   42   48   45   46   47
                                                                 
     3s_h    26   28   27
                                                                 
     6S4     31   32   39   40   36   35
                                                                 
     6s_d    29   30   38   37   34   33
                                                                 

     Band symmetry, O_h (m-3m)  point group:

     e(  1 -  1) =     -5.74946  eV     1   --> A_1g G_1   G_1+
     e(  2 -  4) =      6.21923  eV     3   --> T_2g G_25' G_5+
     e(  5 -  7) =      8.77922  eV     3   --> T_1u G_15  G_4-
     e(  8 -  8) =      9.58788  eV     1   --> A_2u G_2'  G_2-

 **************************************************************************

 **************************************************************************

                    xk=(  -0.02500,   0.00000,   0.00000  )

     point group C_4v (4mm) 
     there are  5 classes
     the character table:

       E     2C4   C2    2s_v  2s_d 
A_1    1.00  1.00  1.00  1.00  1.00
A_2    1.00  1.00  1.00 -1.00 -1.00
B_1    1.00 -1.00  1.00  1.00 -1.00
B_2    1.00 -1.00  1.00 -1.00  1.00
E      2.00  0.00 -2.00  0.00  0.00

     the symmetry operations in each class and the name of the first element:

     E        1
                                                                 
     2C4      3    4
                                                                 
     C2       2
                                                                 
     2s_v     5    6
                                                                 
     2s_d     7    8
                                                                 

     Band symmetry, C_4v (4mm)  point group:

     e(  1 -  1) =     -5.74672  eV     1   --> A_1  G_1 D_1   
     e(  2 -  2) =      6.20031  eV     1   --> B_2  G_4 D_2'  
     e(  3 -  4) =      6.20718  eV     2   --> E    G_5 D_5   
     e(  5 -  5) =      8.77237  eV     1   --> A_1  G_1 D_1   
     e(  6 -  7) =      8.79459  eV     2   --> E    G_5 D_5   
     e(  8 -  8) =      9.60644  eV     1   --> B_2  G_4 D_2'  

 **************************************************************************

 **************************************************************************

                    xk=(  -0.05000,   0.00000,   0.00000  )

     Band symmetry, C_4v (4mm)  point group:

     e(  1 -  1) =     -5.73851  eV     1   --> A_1  G_1 D_1   
     e(  2 -  2) =      6.14482  eV     1   --> B_2  G_4 D_2'  
     e(  3 -  4) =      6.17206  eV     2   --> E    G_5 D_5   
     e(  5 -  5) =      8.75209  eV     1   --> A_1  G_1 D_1   
     e(  6 -  7) =      8.83983  eV     2   --> E    G_5 D_5   
     e(  8 -  8) =      9.66065  eV     1   --> B_2  G_4 D_2'  

 **************************************************************************

 **************************************************************************

                    xk=(  -0.07500,   0.00000,   0.00000  )

     Band symmetry, C_4v (4mm)  point group:

     e(  1 -  1) =     -5.72482  eV     1   --> A_1  G_1 D_1   
     e(  2 -  2) =      6.05623  eV     1   --> B_2  G_4 D_2'  
     e(  3 -  4) =      6.11618  eV     2   --> E    G_5 D_5   
     e(  5 -  5) =      8.71898  eV     1   --> A_1  G_1 D_1   
     e(  6 -  7) =      8.91256  eV     2   --> E    G_5 D_5   
     e(  8 -  8) =      9.74643  eV     1   --> B_2  G_4 D_2'  

 **************************************************************************

 **************************************************************************

                    xk=(  -0.10000,   0.00000,   0.00000  )

     Band symmetry, C_4v (4mm)  point group:

     e(  1 -  1) =     -5.70567  eV     1   --> A_1  G_1 D_1   
     e(  2 -  2) =      5.93927  eV     1   --> B_2  G_4 D_2'  
     e(  3 -  4) =      6.04282  eV     2   --> E    G_5 D_5   
     e(  5 -  5) =      8.67398  eV     1   --> A_1  G_1 D_1   
     e(  6 -  7) =      9.00949  eV     2   --> E    G_5 D_5   
     e(  8 -  8) =      9.85797  eV     1   --> B_2  G_4 D_2'  

 **************************************************************************

 **************************************************************************

                    xk=(  -0.12500,   0.00000,   0.00000  )

     Band symmetry, C_4v (4mm)  point group:

     e(  1 -  1) =     -5.68105  eV     1   --> A_1  G_1 D_1   
     e(  2 -  2) =      5.79894  eV     1   --> B_2  G_4 D_2'  
     e(  3 -  4) =      5.95551  eV     2   --> E    G_5 D_5   
     e(  5 -  5) =      8.61829  eV     1   --> A_1  G_1 D_1   
     e(  6 -  7) =      9.12705  eV     2   --> E    G_5 D_5   
     e(  8 -  8) =      9.98843  eV     1   --> B_2  G_4 D_2'  

 **************************************************************************

 **************************************************************************

                    xk=(  -0.15000,   0.00000,   0.00000  )

     Band symmetry, C_4v (4mm)  point group:

     e(  1 -  1) =     -5.65099  eV     1   --> A_1  G_1 D_1   
     e(  2 -  2) =      5.63991  eV     1   --> B_2  G_4 D_2'  
     e(  3 -  4) =      5.85758  eV     2   --> E    G_5 D_5   
     e(  5 -  5) =      8.55328  eV     1   --> A_1  G_1 D_1   
     e(  6 -  7) =      9.26188  eV     2   --> E    G_5 D_5   
     e(  8 -  8) =     10.13037  eV     1   --> B_2  G_4 D_2'  

 **************************************************************************

 **************************************************************************

                    xk=(  -0.17500,   0.00000,   0.00000  )

     Band symmetry, C_4v (4mm)  point group:

     e(  1 -  1) =     -5.61547  eV     1   --> A_1  G_1 D_1   
     e(  2 -  2) =      5.46611  eV     1   --> B_2  G_4 D_2'  
     e(  3 -  4) =      5.75191  eV     2   --> E    G_5 D_5   
     e(  5 -  5) =      8.48038  eV     1   --> A_1  G_1 D_1   
     e(  6 -  7) =      9.41104  eV     2   --> E    G_5 D_5   
     e(  8 -  8) =     10.27549  eV     1   --> B_2  G_4 D_2'  

 **************************************************************************

 **************************************************************************

                    xk=(  -0.20000,   0.00000,   0.00000  )

     Band symmetry, C_4v (4mm)  point group:

     e(  1 -  1) =     -5.57453  eV     1   --> A_1  G_1 D_1   
     e(  2 -  2) =      5.28080  eV     1   --> B_2  G_4 D_2'  
     e(  3 -  4) =      5.64093  eV     2   --> E    G_5 D_5   
     e(  5 -  5) =      8.40105  eV     1   --> A_1  G_1 D_1   
     e(  6 -  7) =      9.57208  eV     2   --> E    G_5 D_5   
     e(  8 -  8) =     10.41397  eV     1   --> B_2  G_4 D_2'  

 **************************************************************************

 **************************************************************************

                    xk=(  -0.22500,   0.00000,   0.00000  )

     Band symmetry, C_4v (4mm)  point group:

     e(  1 -  1) =     -5.52817  eV     1   --> A_1  G_1 D_1   
     e(  2 -  2) =      5.08643  eV     1   --> B_2  G_4 D_2'  
     e(  3 -  4) =      5.52646  eV     2   --> E    G_5 D_5   
     e(  5 -  5) =      8.31661  eV     1   --> A_1  G_1 D_1   
     e(  6 -  7) =      9.74299  eV     2   --> E    G_5 D_5   
     e(  8 -  8) =     10.53357  eV     1   --> B_2  G_4 D_2'  

 **************************************************************************

 **************************************************************************

                    xk=(  -0.25000,   0.00000,   0.00000  )

     Band symmetry, C_4v (4mm)  point group:

     e(  1 -  1) =     -5.47642  eV     1   --> A_1  G_1 D_1   
     e(  2 -  2) =      4.88509  eV     1   --> B_2  G_4 D_2'  
     e(  3 -  4) =      5.41022  eV     2   --> E    G_5 D_5   
     e(  5 -  5) =      8.22845  eV     1   --> A_1  G_1 D_1   
     e(  6 -  7) =      9.92221  eV     2   --> E    G_5 D_5   
     e(  8 -  8) =     10.61945  eV     1   --> B_2  G_4 D_2'  

 **************************************************************************

 **************************************************************************

                    xk=(  -0.27500,   0.00000,   0.00000  )

     Band symmetry, C_4v (4mm)  point group:

     e(  1 -  1) =     -5.41928  eV     1   --> A_1  G_1 D_1   
     e(  2 -  2) =      4.67819  eV     1   --> B_2  G_4 D_2'  
     e(  3 -  4) =      5.29334  eV     2   --> E    G_5 D_5   
     e(  5 -  5) =      8.13771  eV     1   --> A_1  G_1 D_1   
     e(  6 -  7) =     10.10838  eV     2   --> E    G_5 D_5   
     e(  8 -  8) =     10.65641  eV     1   --> B_2  G_4 D_2'  

 **************************************************************************

 **************************************************************************

                    xk=(  -0.30000,   0.00000,   0.00000  )

     Band symmetry, C_4v (4mm)  point group:

     e(  1 -  1) =     -5.35678  eV     1   --> A_1  G_1 D_1   
     e(  2 -  2) =      4.46702  eV     1   --> B_2  G_4 D_2'  
     e(  3 -  4) =      5.17683  eV     2   --> E    G_5 D_5   
     e(  5 -  5) =      8.04547  eV     1   --> A_1  G_1 D_1   
     e(  6 -  7) =     10.30058  eV     2   --> E    G_5 D_5   
     e(  8 -  8) =     10.63543  eV     1   --> B_2  G_4 D_2'  

 **************************************************************************

 **************************************************************************

                    xk=(  -0.32500,   0.00000,   0.00000  )

     Band symmetry, C_4v (4mm)  point group:

     e(  1 -  1) =     -5.28894  eV     1   --> A_1  G_1 D_1   
     e(  2 -  2) =      4.25242  eV     1   --> B_2  G_4 D_2'  
     e(  3 -  4) =      5.06135  eV     2   --> E    G_5 D_5   
     e(  5 -  5) =      7.95263  eV     1   --> A_1  G_1 D_1   
     e(  6 -  7) =     10.49806  eV     2   --> E    G_5 D_5   
     e(  8 -  8) =     10.55834  eV     1   --> B_2  G_4 D_2'  

 **************************************************************************

 **************************************************************************

                    xk=(  -0.35000,   0.00000,   0.00000  )

     Band symmetry, C_4v (4mm)  point group:

     e(  1 -  1) =     -5.21578  eV     1   --> A_1  G_1 D_1   
     e(  2 -  2) =      4.03516  eV     1   --> B_2  G_4 D_2'  
     e(  3 -  4) =      4.94770  eV     2   --> E    G_5 D_5   
     e(  5 -  5) =      7.86014  eV     1   --> A_1  G_1 D_1   
     e(  6 -  6) =     10.43625  eV     1   --> B_2  G_4 D_2'  
     e(  7 -  8) =     10.69990  eV     2   --> E    G_5 D_5   

 **************************************************************************

 **************************************************************************

                    xk=(  -0.37500,   0.00000,   0.00000  )

     Band symmetry, C_4v (4mm)  point group:

     e(  1 -  1) =     -5.13735  eV     1   --> A_1  G_1 D_1   
     e(  2 -  2) =      3.81576  eV     1   --> B_2  G_4 D_2'  
     e(  3 -  4) =      4.83629  eV     2   --> E    G_5 D_5   
     e(  5 -  5) =      7.76868  eV     1   --> A_1  G_1 D_1   
     e(  6 -  6) =     10.28281  eV     1   --> B_2  G_4 D_2'  
     e(  7 -  8) =     10.90557  eV     2   --> E    G_5 D_5   

 **************************************************************************

 **************************************************************************

                    xk=(  -0.40000,   0.00000,   0.00000  )

     Band symmetry, C_4v (4mm)  point group:

     e(  1 -  1) =     -5.05365  eV     1   --> A_1  G_1 D_1   
     e(  2 -  2) =      3.59470  eV     1   --> B_2  G_4 D_2'  
     e(  3 -  4) =      4.72756  eV     2   --> E    G_5 D_5   
     e(  5 -  5) =      7.67892  eV     1   --> A_1  G_1 D_1   
     e(  6 -  6) =     10.10961  eV     1   --> B_2  G_4 D_2'  
     e(  7 -  8) =     11.11466  eV     2   --> E    G_5 D_5   

 **************************************************************************

 **************************************************************************

                    xk=(  -0.42500,   0.00000,   0.00000  )

     Band symmetry, C_4v (4mm)  point group:

     e(  1 -  1) =     -4.96474  eV     1   --> A_1  G_1 D_1   
     e(  2 -  2) =      3.37233  eV     1   --> B_2  G_4 D_2'  
     e(  3 -  4) =      4.62183  eV     2   --> E    G_5 D_5   
     e(  5 -  5) =      7.59144  eV     1   --> A_1  G_1 D_1   
     e(  6 -  6) =      9.92508  eV     1   --> B_2  G_4 D_2'  
     e(  7 -  8) =     11.32677  eV     2   --> E    G_5 D_5   

 **************************************************************************

 **************************************************************************

                    xk=(  -0.45000,   0.00000,   0.00000  )

     Band symmetry, C_4v (4mm)  point group:

     e(  1 -  1) =     -4.87063  eV     1   --> A_1  G_1 D_1   
     e(  2 -  2) =      3.14898  eV     1   --> B_2  G_4 D_2'  
     e(  3 -  4) =      4.51940  eV     2   --> E    G_5 D_5   
     e(  5 -  5) =      7.50675  eV     1   --> A_1  G_1 D_1   
     e(  6 -  6) =      9.73502  eV     1   --> B_2  G_4 D_2'  
     e(  7 -  8) =     11.54159  eV     2   --> E    G_5 D_5   

 **************************************************************************

 **************************************************************************

                    xk=(  -0.47500,   0.00000,   0.00000  )

     Band symmetry, C_4v (4mm)  point group:

     e(  1 -  1) =     -4.77138  eV     1   --> A_1  G_1 D_1   
     e(  2 -  2) =      2.92490  eV     1   --> B_2  G_4 D_2'  
     e(  3 -  4) =      4.42050  eV     2   --> E    G_5 D_5   
     e(  5 -  5) =      7.42530  eV     1   --> A_1  G_1 D_1   
     e(  6 -  6) =      9.54338  eV     1   --> B_2  G_4 D_2'  
     e(  7 -  8) =     11.75883  eV     2   --> E    G_5 D_5   

 **************************************************************************

 **************************************************************************

                    xk=(  -0.50000,   0.00000,   0.00000  )

     Band symmetry, C_4v (4mm)  point group:

     e(  1 -  1) =     -4.66701  eV     1   --> A_1  G_1 D_1   
     e(  2 -  2) =      2.70034  eV     1   --> B_2  G_4 D_2'  
     e(  3 -  4) =      4.32535  eV     2   --> E    G_5 D_5   
     e(  5 -  5) =      7.34756  eV     1   --> A_1  G_1 D_1   
     e(  6 -  6) =      9.35289  eV     1   --> B_2  G_4 D_2'  
     e(  7 -  8) =     11.97848  eV     2   --> E    G_5 D_5   

 **************************************************************************

 **************************************************************************

                    xk=(  -0.52500,   0.00000,   0.00000  )

     Band symmetry, C_4v (4mm)  point group:

     e(  1 -  1) =     -4.55758  eV     1   --> A_1  G_1 D_1   
     e(  2 -  2) =      2.47549  eV     1   --> B_2  G_4 D_2'  
     e(  3 -  4) =      4.23410  eV     2   --> E    G_5 D_5   
     e(  5 -  5) =      7.27375  eV     1   --> A_1  G_1 D_1   
     e(  6 -  6) =      9.16547  eV     1   --> B_2  G_4 D_2'  
     e(  7 -  8) =     12.19991  eV     2   --> E    G_5 D_5   

 **************************************************************************

 **************************************************************************

                    xk=(  -0.55000,   0.00000,   0.00000  )

     Band symmetry, C_4v (4mm)  point group:

     e(  1 -  1) =     -4.44314  eV     1   --> A_1  G_1 D_1   
     e(  2 -  2) =      2.25056  eV     1   --> B_2  G_4 D_2'  
     e(  3 -  4) =      4.14689  eV     2   --> E    G_5 D_5   
     e(  5 -  5) =      7.20422  eV     1   --> A_1  G_1 D_1   
     e(  6 -  6) =      8.98249  eV     1   --> B_2  G_4 D_2'  
     e(  7 -  8) =     12.42316  eV     2   --> E    G_5 D_5   

 **************************************************************************

 **************************************************************************

                    xk=(  -0.57500,   0.00000,   0.00000  )

     Band symmetry, C_4v (4mm)  point group:

     e(  1 -  1) =     -4.32373  eV     1   --> A_1  G_1 D_1   
     e(  2 -  2) =      2.02571  eV     1   --> B_2  G_4 D_2'  
     e(  3 -  4) =      4.06383  eV     2   --> E    G_5 D_5   
     e(  5 -  5) =      7.13919  eV     1   --> A_1  G_1 D_1   
     e(  6 -  6) =      8.80486  eV     1   --> B_2  G_4 D_2'  
     e(  7 -  8) =     12.64815  eV     2   --> E    G_5 D_5   

 **************************************************************************

 **************************************************************************

                    xk=(  -0.60000,   0.00000,   0.00000  )

     Band symmetry, C_4v (4mm)  point group:

     e(  1 -  1) =     -4.19940  eV     1   --> A_1  G_1 D_1   
     e(  2 -  2) =      1.80119  eV     1   --> B_2  G_4 D_2'  
     e(  3 -  4) =      3.98512  eV     2   --> E    G_5 D_5   
     e(  5 -  5) =      7.07913  eV     1   --> A_1  G_1 D_1   
     e(  6 -  6) =      8.63354  eV     1   --> B_2  G_4 D_2'  
     e(  7 -  8) =     12.87473  eV     2   --> E    G_5 D_5   

 **************************************************************************

 **************************************************************************

                    xk=(  -0.62500,   0.00000,   0.00000  )

     Band symmetry, C_4v (4mm)  point group:

     e(  1 -  1) =     -4.07022  eV     1   --> A_1  G_1 D_1   
     e(  2 -  2) =      1.57714  eV     1   --> B_2  G_4 D_2'  
     e(  3 -  4) =      3.91081  eV     2   --> E    G_5 D_5   
     e(  5 -  5) =      7.02416  eV     1   --> A_1  G_1 D_1   
     e(  6 -  6) =      8.46897  eV     1   --> B_2  G_4 D_2'  
     e(  7 -  8) =     13.10283  eV     2   --> E    G_5 D_5   

 **************************************************************************

 **************************************************************************

                    xk=(  -0.65000,   0.00000,   0.00000  )

     Band symmetry, C_4v (4mm)  point group:

     e(  1 -  1) =     -3.93624  eV     1   --> A_1  G_1 D_1   
     e(  2 -  2) =      1.35372  eV     1   --> B_2  G_4 D_2'  
     e(  3 -  4) =      3.84098  eV     2   --> E    G_5 D_5   
     e(  5 -  5) =      6.97451  eV     1   --> A_1  G_1 D_1   
     e(  6 -  6) =      8.31142  eV     1   --> B_2  G_4 D_2'  
     e(  7 -  8) =     13.33233  eV     2   --> E    G_5 D_5   

 **************************************************************************

 **************************************************************************

                    xk=(  -0.67500,   0.00000,   0.00000  )

     Band symmetry, C_4v (4mm)  point group:

     e(  1 -  1) =     -3.79754  eV     1   --> A_1  G_1 D_1   
     e(  2 -  2) =      1.13116  eV     1   --> B_2  G_4 D_2'  
     e(  3 -  4) =      3.77570  eV     2   --> E    G_5 D_5   
     e(  5 -  5) =      6.93034  eV     1   --> A_1  G_1 D_1   
     e(  6 -  6) =      8.16145  eV     1   --> B_2  G_4 D_2'  
     e(  7 -  8) =     13.56319  eV     2   --> E    G_5 D_5   

 **************************************************************************

 **************************************************************************

                    xk=(  -0.70000,   0.00000,   0.00000  )

     Band symmetry, C_4v (4mm)  point group:

     e(  1 -  1) =     -3.65419  eV     1   --> A_1  G_1 D_1   
     e(  2 -  2) =      0.90963  eV     1   --> B_2  G_4 D_2'  
     e(  3 -  4) =      3.71504  eV     2   --> E    G_5 D_5   
     e(  5 -  5) =      6.89185  eV     1   --> A_1  G_1 D_1   
     e(  6 -  6) =      8.01916  eV     1   --> B_2  G_4 D_2'  
     e(  7 -  8) =     13.79533  eV     2   --> E    G_5 D_5   

 **************************************************************************

 **************************************************************************

                    xk=(  -0.72500,   0.00000,   0.00000  )

     Band symmetry, C_4v (4mm)  point group:

     e(  1 -  1) =     -3.50625  eV     1   --> A_1  G_1 D_1   
     e(  2 -  2) =      0.68929  eV     1   --> B_2  G_4 D_2'  
     e(  3 -  4) =      3.65901  eV     2   --> E    G_5 D_5   
     e(  5 -  5) =      6.85921  eV     1   --> A_1  G_1 D_1   
     e(  6 -  6) =      7.88470  eV     1   --> B_2  G_4 D_2'  
     e(  7 -  8) =     14.02865  eV     2   --> E    G_5 D_5   

 **************************************************************************

 **************************************************************************

                    xk=(  -0.75000,   0.00000,   0.00000  )

     Band symmetry, C_4v (4mm)  point group:

     e(  1 -  1) =     -3.35380  eV     1   --> A_1  G_1 D_1   
     e(  2 -  2) =      0.47035  eV     1   --> B_2  G_4 D_2'  
     e(  3 -  4) =      3.60774  eV     2   --> E    G_5 D_5   
     e(  5 -  5) =      6.83259  eV     1   --> A_1  G_1 D_1   
     e(  6 -  6) =      7.75814  eV     1   --> B_2  G_4 D_2'  
     e(  7 -  8) =     14.26303  eV     2   --> E    G_5 D_5   

 **************************************************************************

 **************************************************************************

                    xk=(  -0.77500,   0.00000,   0.00000  )

     Band symmetry, C_4v (4mm)  point group:

     e(  1 -  1) =     -3.19694  eV     1   --> A_1  G_1 D_1   
     e(  2 -  2) =      0.25299  eV     1   --> B_2  G_4 D_2'  
     e(  3 -  4) =      3.56124  eV     2   --> E    G_5 D_5   
     e(  5 -  5) =      6.81213  eV     1   --> A_1  G_1 D_1   
     e(  6 -  6) =      7.63957  eV     1   --> B_2  G_4 D_2'  
     e(  7 -  8) =     14.49830  eV     2   --> E    G_5 D_5   

 **************************************************************************

 **************************************************************************

                    xk=(  -0.80000,   0.00000,   0.00000  )

     Band symmetry, C_4v (4mm)  point group:

     e(  1 -  1) =     -3.03574  eV     1   --> A_1  G_1 D_1   
     e(  2 -  2) =      0.03739  eV     1   --> B_2  G_4 D_2'  
     e(  3 -  4) =      3.51954  eV     2   --> E    G_5 D_5   
     e(  5 -  5) =      6.79798  eV     1   --> A_1  G_1 D_1   
     e(  6 -  6) =      7.52898  eV     1   --> B_2  G_4 D_2'  
     e(  7 -  8) =     14.73421  eV     2   --> E    G_5 D_5   

 **************************************************************************

 **************************************************************************

                    xk=(  -0.82500,   0.00000,   0.00000  )

     Band symmetry, C_4v (4mm)  point group:

     e(  1 -  1) =     -2.87031  eV     1   --> A_1  G_1 D_1   
     e(  2 -  2) =     -0.17627  eV     1   --> B_2  G_4 D_2'  
     e(  3 -  4) =      3.48268  eV     2   --> E    G_5 D_5   
     e(  5 -  5) =      6.79028  eV     1   --> A_1  G_1 D_1   
     e(  6 -  6) =      7.42639  eV     1   --> B_2  G_4 D_2'  
     e(  7 -  8) =     14.97036  eV     2   --> E    G_5 D_5   

 **************************************************************************

 **************************************************************************

                    xk=(  -0.85000,   0.00000,   0.00000  )

     Band symmetry, C_4v (4mm)  point group:

     e(  1 -  1) =     -2.70074  eV     1   --> A_1  G_1 D_1   
     e(  2 -  2) =     -0.38781  eV     1   --> B_2  G_4 D_2'  
     e(  3 -  4) =      3.45069  eV     2   --> E    G_5 D_5   
     e(  5 -  5) =      6.78921  eV     1   --> A_1  G_1 D_1   
     e(  6 -  6) =      7.33177  eV     1   --> B_2  G_4 D_2'  
     e(  7 -  8) =     15.20615  eV     2   --> E    G_5 D_5   

 **************************************************************************

 **************************************************************************

                    xk=(  -0.87500,   0.00000,   0.00000  )

     Band symmetry, C_4v (4mm)  point group:

     e(  1 -  1) =     -2.52714  eV     1   --> A_1  G_1 D_1   
     e(  2 -  2) =     -0.59704  eV     1   --> B_2  G_4 D_2'  
     e(  3 -  4) =      3.42357  eV     2   --> E    G_5 D_5   
     e(  5 -  5) =      6.79480  eV     1   --> A_1  G_1 D_1   
     e(  6 -  6) =      7.24505  eV     1   --> B_2  G_4 D_2'  
     e(  7 -  8) =     15.44033  eV     2   --> E    G_5 D_5   

 **************************************************************************

 **************************************************************************

                    xk=(  -0.90000,   0.00000,   0.00000  )

     Band symmetry, C_4v (4mm)  point group:

     e(  1 -  1) =     -2.34962  eV     1   --> A_1  G_1 D_1   
     e(  2 -  2) =     -0.80381  eV     1   --> B_2  G_4 D_2'  
     e(  3 -  4) =      3.40136  eV     2   --> E    G_5 D_5   
     e(  5 -  5) =      6.80722  eV     1   --> A_1  G_1 D_1   
     e(  6 -  6) =      7.16618  eV     1   --> B_2  G_4 D_2'  
     e(  7 -  8) =     15.67079  eV     2   --> E    G_5 D_5   

 **************************************************************************

 **************************************************************************

                    xk=(  -0.92500,   0.00000,   0.00000  )

     Band symmetry, C_4v (4mm)  point group:

     e(  1 -  1) =     -2.16830  eV     1   --> A_1  G_1 D_1   
     e(  2 -  2) =     -1.00793  eV     1   --> B_2  G_4 D_2'  
     e(  3 -  4) =      3.38407  eV     2   --> E    G_5 D_5   
     e(  5 -  5) =      6.82658  eV     1   --> A_1  G_1 D_1   
     e(  6 -  6) =      7.09508  eV     1   --> B_2  G_4 D_2'  
     e(  7 -  8) =     15.89318  eV     2   --> E    G_5 D_5   

 **************************************************************************

 **************************************************************************

                    xk=(  -0.95000,   0.00000,   0.00000  )

     Band symmetry, C_4v (4mm)  point group:

     e(  1 -  1) =     -1.98330  eV     1   --> A_1  G_1 D_1   
     e(  2 -  2) =     -1.20924  eV     1   --> B_2  G_4 D_2'  
     e(  3 -  4) =      3.37172  eV     2   --> E    G_5 D_5   
     e(  5 -  5) =      6.85305  eV     1   --> A_1  G_1 D_1   
     e(  6 -  6) =      7.03168  eV     1   --> B_2  G_4 D_2'  
     e(  7 -  8) =     16.09770  eV     2   --> E    G_5 D_5   

 **************************************************************************

 **************************************************************************

                    xk=(  -0.97500,   0.00000,   0.00000  )

     Band symmetry, C_4v (4mm)  point group:

     e(  1 -  1) =     -1.79476  eV     1   --> A_1  G_1 D_1   
     e(  2 -  2) =     -1.40759  eV     1   --> B_2  G_4 D_2'  
     e(  3 -  4) =      3.36430  eV     2   --> E    G_5 D_5   
     e(  5 -  5) =      6.88666  eV     1   --> A_1  G_1 D_1   
     e(  6 -  6) =      6.97587  eV     1   --> B_2  G_4 D_2'  
     e(  7 -  8) =     16.25958  eV     2   --> E    G_5 D_5   

 **************************************************************************

 **************************************************************************

                    xk=(  -1.00000,   0.00000,   0.00000  )

     zone border point and non-symmorphic group 
     symmetry decomposition not available

 **************************************************************************

 **************************************************************************

                    xk=(  -1.00000,   0.01250,   0.00000  )

     zone border point and non-symmorphic group 
     symmetry decomposition not available

 **************************************************************************

 **************************************************************************

                    xk=(  -1.00000,   0.02500,   0.00000  )

     zone border point and non-symmorphic group 
     symmetry decomposition not available

 **************************************************************************

 **************************************************************************

                    xk=(  -1.00000,   0.03750,   0.00000  )

     zone border point and non-symmorphic group 
     symmetry decomposition not available

 **************************************************************************

 **************************************************************************

                    xk=(  -1.00000,   0.05000,   0.00000  )

     zone border point and non-symmorphic group 
     symmetry decomposition not available

 **************************************************************************

 **************************************************************************

                    xk=(  -1.00000,   0.06250,   0.00000  )

     zone border point and non-symmorphic group 
     symmetry decomposition not available

 **************************************************************************

 **************************************************************************

                    xk=(  -1.00000,   0.07500,   0.00000  )

     zone border point and non-symmorphic group 
     symmetry decomposition not available

 **************************************************************************

 **************************************************************************

                    xk=(  -1.00000,   0.08750,   0.00000  )

     zone border point and non-symmorphic group 
     symmetry decomposition not available

 **************************************************************************

 **************************************************************************

                    xk=(  -1.00000,   0.10000,   0.00000  )

     zone border point and non-symmorphic group 
     symmetry decomposition not available

 **************************************************************************

 **************************************************************************

                    xk=(  -1.00000,   0.11250,   0.00000  )

     zone border point and non-symmorphic group 
     symmetry decomposition not available

 **************************************************************************

 **************************************************************************

                    xk=(  -1.00000,   0.12500,   0.00000  )

     zone border point and non-symmorphic group 
     symmetry decomposition not available

 **************************************************************************

 **************************************************************************

                    xk=(  -1.00000,   0.13750,   0.00000  )

     zone border point and non-symmorphic group 
     symmetry decomposition not available

 **************************************************************************

 **************************************************************************

                    xk=(  -1.00000,   0.15000,   0.00000  )

     zone border point and non-symmorphic group 
     symmetry decomposition not available

 **************************************************************************

 **************************************************************************

                    xk=(  -1.00000,   0.16250,   0.00000  )

     zone border point and non-symmorphic group 
     symmetry decomposition not available

 **************************************************************************

 **************************************************************************

                    xk=(  -1.00000,   0.17500,   0.00000  )

     zone border point and non-symmorphic group 
     symmetry decomposition not available

 **************************************************************************

 **************************************************************************

                    xk=(  -1.00000,   0.18750,   0.00000  )

     zone border point and non-symmorphic group 
     symmetry decomposition not available

 **************************************************************************

 **************************************************************************

                    xk=(  -1.00000,   0.20000,   0.00000  )

     zone border point and non-symmorphic group 
     symmetry decomposition not available

 **************************************************************************

 **************************************************************************

                    xk=(  -1.00000,   0.21250,   0.00000  )

     zone border point and non-symmorphic group 
     symmetry decomposition not available

 **************************************************************************

 **************************************************************************

                    xk=(  -1.00000,   0.22500,   0.00000  )

     zone border point and non-symmorphic group 
     symmetry decomposition not available

 **************************************************************************

 **************************************************************************

                    xk=(  -1.00000,   0.23750,   0.00000  )

     zone border point and non-symmorphic group 
     symmetry decomposition not available

 **************************************************************************

 **************************************************************************

                    xk=(  -1.00000,   0.25000,   0.00000  )

     zone border point and non-symmorphic group 
     symmetry decomposition not available

 **************************************************************************

 **************************************************************************

                    xk=(  -1.00000,   0.26250,   0.00000  )

     zone border point and non-symmorphic group 
     symmetry decomposition not available

 **************************************************************************

 **************************************************************************

                    xk=(  -1.00000,   0.27500,   0.00000  )

     zone border point and non-symmorphic group 
     symmetry decomposition not available

 **************************************************************************

 **************************************************************************

                    xk=(  -1.00000,   0.28750,   0.00000  )

     zone border point and non-symmorphic group 
     symmetry decomposition not available

 **************************************************************************

 **************************************************************************

                    xk=(  -1.00000,   0.30000,   0.00000  )

     zone border point and non-symmorphic group 
     symmetry decomposition not available

 **************************************************************************

 **************************************************************************

                    xk=(  -1.00000,   0.31250,   0.00000  )

     zone border point and non-symmorphic group 
     symmetry decomposition not available

 **************************************************************************

 **************************************************************************

                    xk=(  -1.00000,   0.32500,   0.00000  )

     zone border point and non-symmorphic group 
     symmetry decomposition not available

 **************************************************************************

 **************************************************************************

                    xk=(  -1.00000,   0.33750,   0.00000  )

     zone border point and non-symmorphic group 
     symmetry decomposition not available

 **************************************************************************

 **************************************************************************

                    xk=(  -1.00000,   0.35000,   0.00000  )

     zone border point and non-symmorphic group 
     symmetry decomposition not available

 **************************************************************************

 **************************************************************************

                    xk=(  -1.00000,   0.36250,   0.00000  )

     zone border point and non-symmorphic group 
     symmetry decomposition not available

 **************************************************************************

 **************************************************************************

                    xk=(  -1.00000,   0.37500,   0.00000  )

     zone border point and non-symmorphic group 
     symmetry decomposition not available

 **************************************************************************

 **************************************************************************

                    xk=(  -1.00000,   0.38750,   0.00000  )

     zone border point and non-symmorphic group 
     symmetry decomposition not available

 **************************************************************************

 **************************************************************************

                    xk=(  -1.00000,   0.40000,   0.00000  )

     zone border point and non-symmorphic group 
     symmetry decomposition not available

 **************************************************************************

 **************************************************************************

                    xk=(  -1.00000,   0.41250,   0.00000  )

     zone border point and non-symmorphic group 
     symmetry decomposition not available

 **************************************************************************

 **************************************************************************

                    xk=(  -1.00000,   0.42500,   0.00000  )

     zone border point and non-symmorphic group 
     symmetry decomposition not available

 **************************************************************************

 **************************************************************************

                    xk=(  -1.00000,   0.43750,   0.00000  )

     zone border point and non-symmorphic group 
     symmetry decomposition not available

 **************************************************************************

 **************************************************************************

                    xk=(  -1.00000,   0.45000,   0.00000  )

     zone border point and non-symmorphic group 
     symmetry decomposition not available

 **************************************************************************

 **************************************************************************

                    xk=(  -1.00000,   0.46250,   0.00000  )

     zone border point and non-symmorphic group 
     symmetry decomposition not available

 **************************************************************************

 **************************************************************************

                    xk=(  -1.00000,   0.47500,   0.00000  )

     zone border point and non-symmorphic group 
     symmetry decomposition not available

 **************************************************************************

 **************************************************************************

                    xk=(  -1.00000,   0.48750,   0.00000  )

     zone border point and non-symmorphic group 
     symmetry decomposition not available

 **************************************************************************

 **************************************************************************

                    xk=(  -1.00000,   0.50000,   0.00000  )

     zone border point and non-symmorphic group 
     symmetry decomposition not available

 **************************************************************************

 **************************************************************************

                    xk=(  -0.99375,   0.50625,   0.00000  )

     point group C_s (m)    
     there are  2 classes
     the character table:

       E     s    
A'     1.00  1.00
A''    1.00 -1.00

     the symmetry operations in each class and the name of the first element:

     E        1
                                                                 
     s        2
                                                                 

     Band symmetry, C_s (m)     point group:

     e(  1 -  1) =     -1.46688  eV     1   --> A'             
     e(  2 -  2) =     -1.41033  eV     1   --> A''            
     e(  3 -  3) =      2.33890  eV     1   --> A'             
     e(  4 -  4) =      2.38297  eV     1   --> A''            
     e(  5 -  5) =     10.45616  eV     1   --> A''            
     e(  6 -  6) =     10.51115  eV     1   --> A'             
     e(  7 -  7) =     11.21387  eV     1   --> A''            
     e(  8 -  8) =     11.24996  eV     1   --> A'             

 **************************************************************************

 **************************************************************************

                    xk=(  -0.98750,   0.51250,   0.00000  )

     Band symmetry, C_s (m)     point group:

     e(  1 -  1) =     -1.49457  eV     1   --> A'             
     e(  2 -  2) =     -1.38336  eV     1   --> A''            
     e(  3 -  3) =      2.31794  eV     1   --> A'             
     e(  4 -  4) =      2.40760  eV     1   --> A''            
     e(  5 -  5) =     10.39466  eV     1   --> A''            
     e(  6 -  6) =     10.52559  eV     1   --> A'             
     e(  7 -  7) =     11.23221  eV     1   --> A''            
     e(  8 -  8) =     11.28283  eV     1   --> A'             

 **************************************************************************

 **************************************************************************

                    xk=(  -0.98125,   0.51875,   0.00000  )

     Band symmetry, C_s (m)     point group:

     e(  1 -  1) =     -1.52155  eV     1   --> A'             
     e(  2 -  2) =     -1.35757  eV     1   --> A''            
     e(  3 -  3) =      2.29745  eV     1   --> A'             
     e(  4 -  4) =      2.43420  eV     1   --> A''            
     e(  5 -  5) =     10.31426  eV     1   --> A''            
     e(  6 -  6) =     10.53567  eV     1   --> A'             
     e(  7 -  7) =     11.27118  eV     1   --> A''            
     e(  8 -  8) =     11.32113  eV     1   --> A'             

 **************************************************************************

 **************************************************************************

                    xk=(  -0.97500,   0.52500,   0.00000  )

     Band symmetry, C_s (m)     point group:

     e(  1 -  1) =     -1.54783  eV     1   --> A'             
     e(  2 -  2) =     -1.33296  eV     1   --> A''            
     e(  3 -  3) =      2.27742  eV     1   --> A'             
     e(  4 -  4) =      2.46273  eV     1   --> A''            
     e(  5 -  5) =     10.22147  eV     1   --> A''            
     e(  6 -  6) =     10.54188  eV     1   --> A'             
     e(  7 -  7) =     11.32428  eV     1   --> A''            
     e(  8 -  8) =     11.36435  eV     1   --> A'             

 **************************************************************************

 **************************************************************************

                    xk=(  -0.96875,   0.53125,   0.00000  )

     Band symmetry, C_s (m)     point group:

     e(  1 -  1) =     -1.57339  eV     1   --> A'             
     e(  2 -  2) =     -1.30953  eV     1   --> A''            
     e(  3 -  3) =      2.25788  eV     1   --> A'             
     e(  4 -  4) =      2.49314  eV     1   --> A''            
     e(  5 -  5) =     10.12103  eV     1   --> A''            
     e(  6 -  6) =     10.54476  eV     1   --> A'             
     e(  7 -  7) =     11.38683  eV     1   --> A''            
     e(  8 -  8) =     11.41195  eV     1   --> A'             

 **************************************************************************

 **************************************************************************

                    xk=(  -0.96250,   0.53750,   0.00000  )

     Band symmetry, C_s (m)     point group:

     e(  1 -  1) =     -1.59825  eV     1   --> A'             
     e(  2 -  2) =     -1.28726  eV     1   --> A''            
     e(  3 -  3) =      2.23883  eV     1   --> A'             
     e(  4 -  4) =      2.52540  eV     1   --> A''            
     e(  5 -  5) =     10.01597  eV     1   --> A''            
     e(  6 -  6) =     10.54486  eV     1   --> A'             
     e(  7 -  7) =     11.45582  eV     1   --> A''            
     e(  8 -  8) =     11.46336  eV     1   --> A'             

 **************************************************************************

 **************************************************************************

                    xk=(  -0.95625,   0.54375,   0.00000  )

     Band symmetry, C_s (m)     point group:

     e(  1 -  1) =     -1.62240  eV     1   --> A'             
     e(  2 -  2) =     -1.26614  eV     1   --> A''            
     e(  3 -  3) =      2.22026  eV     1   --> A'             
     e(  4 -  4) =      2.55944  eV     1   --> A''            
     e(  5 -  5) =      9.90824  eV     1   --> A''            
     e(  6 -  6) =     10.54268  eV     1   --> A'             
     e(  7 -  7) =     11.51807  eV     1   --> A'             
     e(  8 -  8) =     11.52936  eV     1   --> A''            

 **************************************************************************

 **************************************************************************

                    xk=(  -0.95000,   0.55000,   0.00000  )

     Band symmetry, C_s (m)     point group:

     e(  1 -  1) =     -1.64584  eV     1   --> A'             
     e(  2 -  2) =     -1.24615  eV     1   --> A''            
     e(  3 -  3) =      2.20220  eV     1   --> A'             
     e(  4 -  4) =      2.59521  eV     1   --> A''            
     e(  5 -  5) =      9.79906  eV     1   --> A''            
     e(  6 -  6) =     10.53869  eV     1   --> A'             
     e(  7 -  7) =     11.57565  eV     1   --> A'             
     e(  8 -  8) =     11.60626  eV     1   --> A''            

 **************************************************************************

 **************************************************************************

                    xk=(  -0.94375,   0.55625,   0.00000  )

     Band symmetry, C_s (m)     point group:

     e(  1 -  1) =     -1.66857  eV     1   --> A'             
     e(  2 -  2) =     -1.22727  eV     1   --> A''            
     e(  3 -  3) =      2.18463  eV     1   --> A'             
     e(  4 -  4) =      2.63262  eV     1   --> A''            
     e(  5 -  5) =      9.68926  eV     1   --> A''            
     e(  6 -  6) =     10.53325  eV     1   --> A'             
     e(  7 -  7) =     11.63561  eV     1   --> A'             
     e(  8 -  8) =     11.68572  eV     1   --> A''            

 **************************************************************************

 **************************************************************************

                    xk=(  -0.93750,   0.56250,   0.00000  )

     Band symmetry, C_s (m)     point group:

     e(  1 -  1) =     -1.69059  eV     1   --> A'             
     e(  2 -  2) =     -1.20948  eV     1   --> A''            
     e(  3 -  3) =      2.16758  eV     1   --> A'             
     e(  4 -  4) =      2.67159  eV     1   --> A''            
     e(  5 -  5) =      9.57934  eV     1   --> A''            
     e(  6 -  6) =     10.52670  eV     1   --> A'             
     e(  7 -  7) =     11.69763  eV     1   --> A'             
     e(  8 -  8) =     11.76722  eV     1   --> A''            

 **************************************************************************

 **************************************************************************

                    xk=(  -0.93125,   0.56875,   0.00000  )

     Band symmetry, C_s (m)     point group:

     e(  1 -  1) =     -1.71189  eV     1   --> A'             
     e(  2 -  2) =     -1.19273  eV     1   --> A''            
     e(  3 -  3) =      2.15104  eV     1   --> A'             
     e(  4 -  4) =      2.71206  eV     1   --> A''            
     e(  5 -  5) =      9.46990  eV     1   --> A''            
     e(  6 -  6) =     10.51933  eV     1   --> A'             
     e(  7 -  7) =     11.76152  eV     1   --> A'             
     e(  8 -  8) =     11.85050  eV     1   --> A''            

 **************************************************************************

 **************************************************************************

                    xk=(  -0.92500,   0.57500,   0.00000  )

     Band symmetry, C_s (m)     point group:

     e(  1 -  1) =     -1.73248  eV     1   --> A'             
     e(  2 -  2) =     -1.17701  eV     1   --> A''            
     e(  3 -  3) =      2.13501  eV     1   --> A'             
     e(  4 -  4) =      2.75391  eV     1   --> A''            
     e(  5 -  5) =      9.36112  eV     1   --> A''            
     e(  6 -  6) =     10.51131  eV     1   --> A'             
     e(  7 -  7) =     11.82691  eV     1   --> A'             
     e(  8 -  8) =     11.93513  eV     1   --> A''            

 **************************************************************************

 **************************************************************************

                    xk=(  -0.91875,   0.58125,   0.00000  )

     Band symmetry, C_s (m)     point group:

     e(  1 -  1) =     -1.75236  eV     1   --> A'             
     e(  2 -  2) =     -1.16228  eV     1   --> A''            
     e(  3 -  3) =      2.11952  eV     1   --> A'             
     e(  4 -  4) =      2.79704  eV     1   --> A''            
     e(  5 -  5) =      9.25331  eV     1   --> A''            
     e(  6 -  6) =     10.50286  eV     1   --> A'             
     e(  7 -  7) =     11.89369  eV     1   --> A'             
     e(  8 -  8) =     12.02100  eV     1   --> A''            

 **************************************************************************

 **************************************************************************

                    xk=(  -0.91250,   0.58750,   0.00000  )

     Band symmetry, C_s (m)     point group:

     e(  1 -  1) =     -1.77151  eV     1   --> A'             
     e(  2 -  2) =     -1.14850  eV     1   --> A''            
     e(  3 -  3) =      2.10455  eV     1   --> A'             
     e(  4 -  4) =      2.84135  eV     1   --> A''            
     e(  5 -  5) =      9.14666  eV     1   --> A''            
     e(  6 -  6) =     10.49413  eV     1   --> A'             
     e(  7 -  7) =     11.96166  eV     1   --> A'             
     e(  8 -  8) =     12.10797  eV     1   --> A''            

 **************************************************************************

 **************************************************************************

                    xk=(  -0.90625,   0.59375,   0.00000  )

     Band symmetry, C_s (m)     point group:

     e(  1 -  1) =     -1.78995  eV     1   --> A'             
     e(  2 -  2) =     -1.13564  eV     1   --> A''            
     e(  3 -  3) =      2.09011  eV     1   --> A'             
     e(  4 -  4) =      2.88672  eV     1   --> A''            
     e(  5 -  5) =      9.04136  eV     1   --> A''            
     e(  6 -  6) =     10.48522  eV     1   --> A'             
     e(  7 -  7) =     12.03070  eV     1   --> A'             
     e(  8 -  8) =     12.19593  eV     1   --> A''            

 **************************************************************************

 **************************************************************************

                    xk=(  -0.90000,   0.60000,   0.00000  )

     Band symmetry, C_s (m)     point group:

     e(  1 -  1) =     -1.80768  eV     1   --> A'             
     e(  2 -  2) =     -1.12366  eV     1   --> A''            
     e(  3 -  3) =      2.07621  eV     1   --> A'             
     e(  4 -  4) =      2.93300  eV     1   --> A''            
     e(  5 -  5) =      8.93759  eV     1   --> A''            
     e(  6 -  6) =     10.47626  eV     1   --> A'             
     e(  7 -  7) =     12.10066  eV     1   --> A'             
     e(  8 -  8) =     12.28478  eV     1   --> A''            

 **************************************************************************

 **************************************************************************

                    xk=(  -0.89375,   0.60625,   0.00000  )

     Band symmetry, C_s (m)     point group:

     e(  1 -  1) =     -1.82468  eV     1   --> A'             
     e(  2 -  2) =     -1.11252  eV     1   --> A''            
     e(  3 -  3) =      2.06285  eV     1   --> A'             
     e(  4 -  4) =      2.98008  eV     1   --> A''            
     e(  5 -  5) =      8.83550  eV     1   --> A''            
     e(  6 -  6) =     10.46731  eV     1   --> A'             
     e(  7 -  7) =     12.17146  eV     1   --> A'             
     e(  8 -  8) =     12.37447  eV     1   --> A''            

 **************************************************************************

 **************************************************************************

                    xk=(  -0.88750,   0.61250,   0.00000  )

     Band symmetry, C_s (m)     point group:

     e(  1 -  1) =     -1.84097  eV     1   --> A'             
     e(  2 -  2) =     -1.10219  eV     1   --> A''            
     e(  3 -  3) =      2.05004  eV     1   --> A'             
     e(  4 -  4) =      3.02778  eV     1   --> A''            
     e(  5 -  5) =      8.73527  eV     1   --> A''            
     e(  6 -  6) =     10.45845  eV     1   --> A'             
     e(  7 -  7) =     12.24299  eV     1   --> A'             
     e(  8 -  8) =     12.46493  eV     1   --> A''            

 **************************************************************************

 **************************************************************************

                    xk=(  -0.88125,   0.61875,   0.00000  )

     Band symmetry, C_s (m)     point group:

     e(  1 -  1) =     -1.85653  eV     1   --> A'             
     e(  2 -  2) =     -1.09262  eV     1   --> A''            
     e(  3 -  3) =      2.03777  eV     1   --> A'             
     e(  4 -  4) =      3.07598  eV     1   --> A''            
     e(  5 -  5) =      8.63706  eV     1   --> A''            
     e(  6 -  6) =     10.44974  eV     1   --> A'             
     e(  7 -  7) =     12.31516  eV     1   --> A'             
     e(  8 -  8) =     12.55612  eV     1   --> A''            

 **************************************************************************

 **************************************************************************

                    xk=(  -0.87500,   0.62500,   0.00000  )

     Band symmetry, C_s (m)     point group:

     e(  1 -  1) =     -1.87138  eV     1   --> A'             
     e(  2 -  2) =     -1.08378  eV     1   --> A''            
     e(  3 -  3) =      2.02605  eV     1   --> A'             
     e(  4 -  4) =      3.12447  eV     1   --> A''            
     e(  5 -  5) =      8.54101  eV     1   --> A''            
     e(  6 -  6) =     10.44123  eV     1   --> A'             
     e(  7 -  7) =     12.38791  eV     1   --> A'             
     e(  8 -  8) =     12.64797  eV     1   --> A''            

 **************************************************************************

 **************************************************************************

                    xk=(  -0.86875,   0.63125,   0.00000  )

     Band symmetry, C_s (m)     point group:

     e(  1 -  1) =     -1.88550  eV     1   --> A'             
     e(  2 -  2) =     -1.07563  eV     1   --> A''            
     e(  3 -  3) =      2.01488  eV     1   --> A'             
     e(  4 -  4) =      3.17309  eV     1   --> A''            
     e(  5 -  5) =      8.44730  eV     1   --> A''            
     e(  6 -  6) =     10.43296  eV     1   --> A'             
     e(  7 -  7) =     12.46115  eV     1   --> A'             
     e(  8 -  8) =     12.74046  eV     1   --> A''            

 **************************************************************************

 **************************************************************************

                    xk=(  -0.86250,   0.63750,   0.00000  )

     Band symmetry, C_s (m)     point group:

     e(  1 -  1) =     -1.89890  eV     1   --> A'             
     e(  2 -  2) =     -1.06813  eV     1   --> A''            
     e(  3 -  3) =      2.00427  eV     1   --> A'             
     e(  4 -  4) =      3.22163  eV     1   --> A''            
     e(  5 -  5) =      8.35604  eV     1   --> A''            
     e(  6 -  6) =     10.42497  eV     1   --> A'             
     e(  7 -  7) =     12.53481  eV     1   --> A'             
     e(  8 -  8) =     12.83355  eV     1   --> A''            

 **************************************************************************

 **************************************************************************

                    xk=(  -0.85625,   0.64375,   0.00000  )

     Band symmetry, C_s (m)     point group:

     e(  1 -  1) =     -1.91159  eV     1   --> A'             
     e(  2 -  2) =     -1.06125  eV     1   --> A''            
     e(  3 -  3) =      1.99423  eV     1   --> A'             
     e(  4 -  4) =      3.26989  eV     1   --> A''            
     e(  5 -  5) =      8.26759  eV     1   --> A''            
     e(  6 -  6) =     10.41729  eV     1   --> A'             
     e(  7 -  7) =     12.60887  eV     1   --> A'             
     e(  8 -  8) =     12.92721  eV     1   --> A''            

 **************************************************************************

 **************************************************************************

                    xk=(  -0.85000,   0.65000,   0.00000  )

     Band symmetry, C_s (m)     point group:

     e(  1 -  1) =     -1.92355  eV     1   --> A'             
     e(  2 -  2) =     -1.05496  eV     1   --> A''            
     e(  3 -  3) =      1.98473  eV     1   --> A'             
     e(  4 -  4) =      3.31766  eV     1   --> A''            
     e(  5 -  5) =      8.18207  eV     1   --> A''            
     e(  6 -  6) =     10.40989  eV     1   --> A'             
     e(  7 -  7) =     12.68317  eV     1   --> A'             
     e(  8 -  8) =     13.02138  eV     1   --> A''            

 **************************************************************************

 **************************************************************************

                    xk=(  -0.84375,   0.65625,   0.00000  )

     Band symmetry, C_s (m)     point group:

     e(  1 -  1) =     -1.93478  eV     1   --> A'             
     e(  2 -  2) =     -1.04922  eV     1   --> A''            
     e(  3 -  3) =      1.97581  eV     1   --> A'             
     e(  4 -  4) =      3.36468  eV     1   --> A''            
     e(  5 -  5) =      8.09969  eV     1   --> A''            
     e(  6 -  6) =     10.40290  eV     1   --> A'             
     e(  7 -  7) =     12.75768  eV     1   --> A'             
     e(  8 -  8) =     13.11605  eV     1   --> A''            

 **************************************************************************

 **************************************************************************

                    xk=(  -0.83750,   0.66250,   0.00000  )

     Band symmetry, C_s (m)     point group:

     e(  1 -  1) =     -1.94530  eV     1   --> A'             
     e(  2 -  2) =     -1.04400  eV     1   --> A''            
     e(  3 -  3) =      1.96745  eV     1   --> A'             
     e(  4 -  4) =      3.41071  eV     1   --> A''            
     e(  5 -  5) =      8.02065  eV     1   --> A''            
     e(  6 -  6) =     10.39629  eV     1   --> A'             
     e(  7 -  7) =     12.83229  eV     1   --> A'             
     e(  8 -  8) =     13.21117  eV     1   --> A''            

 **************************************************************************

 **************************************************************************

                    xk=(  -0.83125,   0.66875,   0.00000  )

     Band symmetry, C_s (m)     point group:

     e(  1 -  1) =     -1.95509  eV     1   --> A'             
     e(  2 -  2) =     -1.03927  eV     1   --> A''            
     e(  3 -  3) =      1.95966  eV     1   --> A'             
     e(  4 -  4) =      3.45550  eV     1   --> A''            
     e(  5 -  5) =      7.94527  eV     1   --> A''            
     e(  6 -  6) =     10.39007  eV     1   --> A'             
     e(  7 -  7) =     12.90695  eV     1   --> A'             
     e(  8 -  8) =     13.30673  eV     1   --> A''            

 **************************************************************************

 **************************************************************************

                    xk=(  -0.82500,   0.67500,   0.00000  )

     Band symmetry, C_s (m)     point group:

     e(  1 -  1) =     -1.96416  eV     1   --> A'             
     e(  2 -  2) =     -1.03500  eV     1   --> A''            
     e(  3 -  3) =      1.95243  eV     1   --> A'             
     e(  4 -  4) =      3.49874  eV     1   --> A''            
     e(  5 -  5) =      7.87378  eV     1   --> A''            
     e(  6 -  6) =     10.38427  eV     1   --> A'             
     e(  7 -  7) =     12.98153  eV     1   --> A'             
     e(  8 -  8) =     13.40267  eV     1   --> A''            

 **************************************************************************

 **************************************************************************

                    xk=(  -0.81875,   0.68125,   0.00000  )

     Band symmetry, C_s (m)     point group:

     e(  1 -  1) =     -1.97250  eV     1   --> A'             
     e(  2 -  2) =     -1.03117  eV     1   --> A''            
     e(  3 -  3) =      1.94578  eV     1   --> A'             
     e(  4 -  4) =      3.54018  eV     1   --> A''            
     e(  5 -  5) =      7.80645  eV     1   --> A''            
     e(  6 -  6) =     10.37890  eV     1   --> A'             
     e(  7 -  7) =     13.05594  eV     1   --> A'             
     e(  8 -  8) =     13.49901  eV     1   --> A''            

 **************************************************************************

 **************************************************************************

                    xk=(  -0.81250,   0.68750,   0.00000  )

     Band symmetry, C_s (m)     point group:

     e(  1 -  1) =     -1.98012  eV     1   --> A'             
     e(  2 -  2) =     -1.02776  eV     1   --> A''            
     e(  3 -  3) =      1.93971  eV     1   --> A'             
     e(  4 -  4) =      3.57946  eV     1   --> A''            
     e(  5 -  5) =      7.74357  eV     1   --> A''            
     e(  6 -  6) =     10.37396  eV     1   --> A'             
     e(  7 -  7) =     13.12993  eV     1   --> A'             
     e(  8 -  8) =     13.59556  eV     1   --> A''            

 **************************************************************************

 **************************************************************************

                    xk=(  -0.80625,   0.69375,   0.00000  )

     Band symmetry, C_s (m)     point group:

     e(  1 -  1) =     -1.98701  eV     1   --> A'             
     e(  2 -  2) =     -1.02474  eV     1   --> A''            
     e(  3 -  3) =      1.93420  eV     1   --> A'             
     e(  4 -  4) =      3.61630  eV     1   --> A''            
     e(  5 -  5) =      7.68543  eV     1   --> A''            
     e(  6 -  6) =     10.36946  eV     1   --> A'             
     e(  7 -  7) =     13.20332  eV     1   --> A'             
     e(  8 -  8) =     13.69230  eV     1   --> A''            

 **************************************************************************

 **************************************************************************

                    xk=(  -0.80000,   0.70000,   0.00000  )

     Band symmetry, C_s (m)     point group:

     e(  1 -  1) =     -1.99318  eV     1   --> A'             
     e(  2 -  2) =     -1.02208  eV     1   --> A''            
     e(  3 -  3) =      1.92928  eV     1   --> A'             
     e(  4 -  4) =      3.65039  eV     1   --> A''            
     e(  5 -  5) =      7.63233  eV     1   --> A''            
     e(  6 -  6) =     10.36541  eV     1   --> A'             
     e(  7 -  7) =     13.27584  eV     1   --> A'             
     e(  8 -  8) =     13.78914  eV     1   --> A''            

 **************************************************************************

 **************************************************************************

                    xk=(  -0.79375,   0.70625,   0.00000  )

     Band symmetry, C_s (m)     point group:

     e(  1 -  1) =     -1.99862  eV     1   --> A'             
     e(  2 -  2) =     -1.01979  eV     1   --> A''            
     e(  3 -  3) =      1.92493  eV     1   --> A'             
     e(  4 -  4) =      3.68141  eV     1   --> A''            
     e(  5 -  5) =      7.58461  eV     1   --> A''            
     e(  6 -  6) =     10.36183  eV     1   --> A'             
     e(  7 -  7) =     13.34708  eV     1   --> A'             
     e(  8 -  8) =     13.88595  eV     1   --> A''            

 **************************************************************************

 **************************************************************************

                    xk=(  -0.78750,   0.71250,   0.00000  )

     Band symmetry, C_s (m)     point group:

     e(  1 -  1) =     -2.00334  eV     1   --> A'             
     e(  2 -  2) =     -1.01783  eV     1   --> A''            
     e(  3 -  3) =      1.92116  eV     1   --> A'             
     e(  4 -  4) =      3.70903  eV     1   --> A''            
     e(  5 -  5) =      7.54250  eV     1   --> A''            
     e(  6 -  6) =     10.35871  eV     1   --> A'             
     e(  7 -  7) =     13.41640  eV     1   --> A'             
     e(  8 -  8) =     13.98251  eV     1   --> A''            

 **************************************************************************

 **************************************************************************

                    xk=(  -0.78125,   0.71875,   0.00000  )

     Band symmetry, C_s (m)     point group:

     e(  1 -  1) =     -2.00733  eV     1   --> A'             
     e(  2 -  2) =     -1.01620  eV     1   --> A''            
     e(  3 -  3) =      1.91796  eV     1   --> A'             
     e(  4 -  4) =      3.73296  eV     1   --> A''            
     e(  5 -  5) =      7.50622  eV     1   --> A''            
     e(  6 -  6) =     10.35606  eV     1   --> A'             
     e(  7 -  7) =     13.48290  eV     1   --> A'             
     e(  8 -  8) =     14.07848  eV     1   --> A''            

 **************************************************************************

 **************************************************************************

                    xk=(  -0.77500,   0.72500,   0.00000  )

     Band symmetry, C_s (m)     point group:

     e(  1 -  1) =     -2.01060  eV     1   --> A'             
     e(  2 -  2) =     -1.01488  eV     1   --> A''            
     e(  3 -  3) =      1.91535  eV     1   --> A'             
     e(  4 -  4) =      3.75295  eV     1   --> A''            
     e(  5 -  5) =      7.47622  eV     1   --> A''            
     e(  6 -  6) =     10.35389  eV     1   --> A'             
     e(  7 -  7) =     13.54519  eV     1   --> A'             
     e(  8 -  8) =     14.17322  eV     1   --> A''            

 **************************************************************************

 **************************************************************************

                    xk=(  -0.76875,   0.73125,   0.00000  )

     Band symmetry, C_s (m)     point group:

     e(  1 -  1) =     -2.01314  eV     1   --> A'             
     e(  2 -  2) =     -1.01386  eV     1   --> A''            
     e(  3 -  3) =      1.91331  eV     1   --> A'             
     e(  4 -  4) =      3.76877  eV     1   --> A''            
     e(  5 -  5) =      7.45263  eV     1   --> A''            
     e(  6 -  6) =     10.35219  eV     1   --> A'             
     e(  7 -  7) =     13.60101  eV     1   --> A'             
     e(  8 -  8) =     14.26542  eV     1   --> A''            

 **************************************************************************

 **************************************************************************

                    xk=(  -0.76250,   0.73750,   0.00000  )

     Band symmetry, C_s (m)     point group:

     e(  1 -  1) =     -2.01496  eV     1   --> A'             
     e(  2 -  2) =     -1.01314  eV     1   --> A''            
     e(  3 -  3) =      1.91186  eV     1   --> A'             
     e(  4 -  4) =      3.78022  eV     1   --> A''            
     e(  5 -  5) =      7.43563  eV     1   --> A''            
     e(  6 -  6) =     10.35098  eV     1   --> A'             
     e(  7 -  7) =     13.64685  eV     1   --> A'             
     e(  8 -  8) =     14.28134  eV     1   --> A'             

 **************************************************************************

 **************************************************************************

                    xk=(  -0.75625,   0.74375,   0.00000  )

     Band symmetry, C_s (m)     point group:

     e(  1 -  1) =     -2.01604  eV     1   --> A'             
     e(  2 -  2) =     -1.01270  eV     1   --> A''            
     e(  3 -  3) =      1.91099  eV     1   --> A'             
     e(  4 -  4) =      3.78715  eV     1   --> A''            
     e(  5 -  5) =      7.42539  eV     1   --> A''            
     e(  6 -  6) =     10.35026  eV     1   --> A'             
     e(  7 -  7) =     13.67789  eV     1   --> A'             
     e(  8 -  8) =     14.25050  eV     1   --> A'             

 **************************************************************************

 **************************************************************************

                    xk=(  -0.75000,   0.75000,   0.00000  )

     point group C_2v (mm2) 
     there are  4 classes
     the character table:

       E     C2    s_v   s_v' 
A_1    1.00  1.00  1.00  1.00
A_2    1.00  1.00 -1.00 -1.00
B_1    1.00 -1.00  1.00 -1.00
B_2    1.00 -1.00 -1.00  1.00

     the symmetry operations in each class and the name of the first element:

     E        1
                                                                 
     C2       2
                                                                 
     s_v      4
                                                                 
     s_v'     3
                                                                 

     Band symmetry, C_2v (mm2)  point group:

     e(  1 -  1) =     -2.01641  eV     1   --> A_1  D_1  S_1  
     e(  2 -  2) =     -1.01256  eV     1   --> B_1  D_3  S_3  
     e(  3 -  3) =      1.91070  eV     1   --> A_1  D_1  S_1  
     e(  4 -  4) =      3.78947  eV     1   --> A_2  D_2  S_2  
     e(  5 -  5) =      7.42196  eV     1   --> B_1  D_3  S_3  
     e(  6 -  6) =     10.35001  eV     1   --> A_1  D_1  S_1  
     e(  7 -  7) =     13.68900  eV     1   --> B_2  D_4  S_4  
     e(  8 -  8) =     14.23943  eV     1   --> A_1  D_1  S_1  

 **************************************************************************

 **************************************************************************

                    xk=(  -0.73125,   0.73125,   0.00000  )

     Band symmetry, C_2v (mm2)  point group:

     e(  1 -  1) =     -2.10537  eV     1   --> A_1  D_1  S_1  
     e(  2 -  2) =     -0.92103  eV     1   --> B_1  D_3  S_3  
     e(  3 -  3) =      1.85424  eV     1   --> A_1  D_1  S_1  
     e(  4 -  4) =      3.85365  eV     1   --> A_2  D_2  S_2  
     e(  5 -  5) =      7.49632  eV     1   --> B_1  D_3  S_3  
     e(  6 -  6) =     10.73010  eV     1   --> A_1  D_1  S_1  
     e(  7 -  7) =     13.45861  eV     1   --> B_2  D_4  S_4  
     e(  8 -  8) =     14.00434  eV     1   --> A_1  D_1  S_1  

 **************************************************************************

 **************************************************************************

                    xk=(  -0.71250,   0.71250,   0.00000  )

     Band symmetry, C_2v (mm2)  point group:

     e(  1 -  1) =     -2.20430  eV     1   --> A_1  D_1  S_1  
     e(  2 -  2) =     -0.82298  eV     1   --> B_1  D_3  S_3  
     e(  3 -  3) =      1.81634  eV     1   --> A_1  D_1  S_1  
     e(  4 -  4) =      3.92171  eV     1   --> A_2  D_2  S_2  
     e(  5 -  5) =      7.57519  eV     1   --> B_1  D_3  S_3  
     e(  6 -  6) =     11.11397  eV     1   --> A_1  D_1  S_1  
     e(  7 -  7) =     13.23207  eV     1   --> B_2  D_4  S_4  
     e(  8 -  8) =     13.77822  eV     1   --> A_1  D_1  S_1  

 **************************************************************************

 **************************************************************************

                    xk=(  -0.69375,   0.69375,   0.00000  )

     Band symmetry, C_2v (mm2)  point group:

     e(  1 -  1) =     -2.31250  eV     1   --> A_1  D_1  S_1  
     e(  2 -  2) =     -0.71842  eV     1   --> B_1  D_3  S_3  
     e(  3 -  3) =      1.79682  eV     1   --> A_1  D_1  S_1  
     e(  4 -  4) =      3.99347  eV     1   --> A_2  D_2  S_2  
     e(  5 -  5) =      7.65832  eV     1   --> B_1  D_3  S_3  
     e(  6 -  6) =     11.49719  eV     1   --> A_1  D_1  S_1  
     e(  7 -  7) =     13.00974  eV     1   --> B_2  D_4  S_4  
     e(  8 -  8) =     13.56482  eV     1   --> A_1  D_1  S_1  

 **************************************************************************

 **************************************************************************

                    xk=(  -0.67500,   0.67500,   0.00000  )

     Band symmetry, C_2v (mm2)  point group:

     e(  1 -  1) =     -2.42900  eV     1   --> A_1  D_1  S_1  
     e(  2 -  2) =     -0.60741  eV     1   --> B_1  D_3  S_3  
     e(  3 -  3) =      1.79508  eV     1   --> A_1  D_1  S_1  
     e(  4 -  4) =      4.06871  eV     1   --> A_2  D_2  S_2  
     e(  5 -  5) =      7.74542  eV     1   --> B_1  D_3  S_3  
     e(  6 -  6) =     11.86965  eV     1   --> A_1  D_1  S_1  
     e(  7 -  7) =     12.79189  eV     1   --> B_2  D_4  S_4  
     e(  8 -  8) =     13.37317  eV     1   --> A_1  D_1  S_1  

 **************************************************************************

 **************************************************************************

                    xk=(  -0.65625,   0.65625,   0.00000  )

     Band symmetry, C_2v (mm2)  point group:

     e(  1 -  1) =     -2.55267  eV     1   --> A_1  D_1  S_1  
     e(  2 -  2) =     -0.48995  eV     1   --> B_1  D_3  S_3  
     e(  3 -  3) =      1.81032  eV     1   --> A_1  D_1  S_1  
     e(  4 -  4) =      4.14722  eV     1   --> A_2  D_2  S_2  
     e(  5 -  5) =      7.83621  eV     1   --> B_1  D_3  S_3  
     e(  6 -  6) =     12.20262  eV     1   --> A_1  D_1  S_1  
     e(  7 -  7) =     12.57877  eV     1   --> B_2  D_4  S_4  
     e(  8 -  8) =     13.23167  eV     1   --> A_1  D_1  S_1  

 **************************************************************************

 **************************************************************************

                    xk=(  -0.63750,   0.63750,   0.00000  )

     Band symmetry, C_2v (mm2)  point group:

     e(  1 -  1) =     -2.68228  eV     1   --> A_1  D_1  S_1  
     e(  2 -  2) =     -0.36608  eV     1   --> B_1  D_3  S_3  
     e(  3 -  3) =      1.84154  eV     1   --> A_1  D_1  S_1  
     e(  4 -  4) =      4.22874  eV     1   --> A_2  D_2  S_2  
     e(  5 -  5) =      7.93032  eV     1   --> B_1  D_3  S_3  
     e(  6 -  6) =     12.37059  eV     1   --> B_2  D_4  S_4  
     e(  7 -  7) =     12.40899  eV     1   --> A_1  D_1  S_1  
     e(  8 -  8) =     13.22636  eV     1   --> A_1  D_1  S_1  

 **************************************************************************

 **************************************************************************

                    xk=(  -0.61875,   0.61875,   0.00000  )

     Band symmetry, C_2v (mm2)  point group:

[...]

 **************************************************************************

                    xk=(  -0.12500,   0.12500,   0.12500  )

     Band symmetry, C_3v (3m)   point group:

     e(  1 -  1) =     -5.54523  eV     1   --> A_1  L_1       
     e(  2 -  2) =      4.61846  eV     1   --> A_1  L_1       
     e(  3 -  4) =      5.92934  eV     2   --> E    L_3       
     e(  5 -  5) =      8.72058  eV     1   --> A_1  L_1       
     e(  6 -  7) =      9.20457  eV     2   --> E    L_3       
     e(  8 -  8) =     10.93365  eV     1   --> A_1  L_1       

 **************************************************************************

 **************************************************************************

                    xk=(  -0.13750,   0.13750,   0.13750  )

     Band symmetry, C_3v (3m)   point group:

     e(  1 -  1) =     -5.50265  eV     1   --> A_1  L_1       
     e(  2 -  2) =      4.38555  eV     1   --> A_1  L_1       
     e(  3 -  4) =      5.88158  eV     2   --> E    L_3       
     e(  5 -  5) =      8.67834  eV     1   --> A_1  L_1       
     e(  6 -  7) =      9.27282  eV     2   --> E    L_3       
     e(  8 -  8) =     11.15348  eV     1   --> A_1  L_1       

 **************************************************************************

 **************************************************************************

                    xk=(  -0.15000,   0.15000,   0.15000  )

     Band symmetry, C_3v (3m)   point group:

     e(  1 -  1) =     -5.45615  eV     1   --> A_1  L_1       
     e(  2 -  2) =      4.15045  eV     1   --> A_1  L_1       
     e(  3 -  4) =      5.83293  eV     2   --> E    L_3       
     e(  5 -  5) =      8.63327  eV     1   --> A_1  L_1       
     e(  6 -  7) =      9.34062  eV     2   --> E    L_3       
     e(  8 -  8) =     11.37640  eV     1   --> A_1  L_1       

 **************************************************************************

 **************************************************************************

                    xk=(  -0.16250,   0.16250,   0.16250  )

     Band symmetry, C_3v (3m)   point group:

     e(  1 -  1) =     -5.40576  eV     1   --> A_1  L_1       
     e(  2 -  2) =      3.91432  eV     1   --> A_1  L_1       
     e(  3 -  4) =      5.78391  eV     2   --> E    L_3       
     e(  5 -  5) =      8.58621  eV     1   --> A_1  L_1       
     e(  6 -  7) =      9.40661  eV     2   --> E    L_3       
     e(  8 -  8) =     11.60096  eV     1   --> A_1  L_1       

 **************************************************************************

 **************************************************************************

                    xk=(  -0.17500,   0.17500,   0.17500  )

     Band symmetry, C_3v (3m)   point group:

     e(  1 -  1) =     -5.35153  eV     1   --> A_1  L_1       
     e(  2 -  2) =      3.67797  eV     1   --> A_1  L_1       
     e(  3 -  4) =      5.73479  eV     2   --> E    L_3       
     e(  5 -  5) =      8.53788  eV     1   --> A_1  L_1       
     e(  6 -  7) =      9.46945  eV     2   --> E    L_3       
     e(  8 -  8) =     11.82618  eV     1   --> A_1  L_1       

 **************************************************************************

 **************************************************************************

                    xk=(  -0.18750,   0.18750,   0.18750  )

     Band symmetry, C_3v (3m)   point group:

     e(  1 -  1) =     -5.29353  eV     1   --> A_1  L_1       
     e(  2 -  2) =      3.44210  eV     1   --> A_1  L_1       
     e(  3 -  4) =      5.68614  eV     2   --> E    L_3       
     e(  5 -  5) =      8.48885  eV     1   --> A_1  L_1       
     e(  6 -  7) =      9.52796  eV     2   --> E    L_3       
     e(  8 -  8) =     12.05112  eV     1   --> A_1  L_1       

 **************************************************************************

 **************************************************************************

                    xk=(  -0.20000,   0.20000,   0.20000  )

     Band symmetry, C_3v (3m)   point group:

     e(  1 -  1) =     -5.23180  eV     1   --> A_1  L_1       
     e(  2 -  2) =      3.20729  eV     1   --> A_1  L_1       
     e(  3 -  4) =      5.63816  eV     2   --> E    L_3       
     e(  5 -  5) =      8.43965  eV     1   --> A_1  L_1       
     e(  6 -  7) =      9.58106  eV     2   --> E    L_3       
     e(  8 -  8) =     12.27506  eV     1   --> A_1  L_1       

 **************************************************************************

 **************************************************************************

                    xk=(  -0.21250,   0.21250,   0.21250  )

     Band symmetry, C_3v (3m)   point group:

     e(  1 -  1) =     -5.16643  eV     1   --> A_1  L_1       
     e(  2 -  2) =      2.97405  eV     1   --> A_1  L_1       
     e(  3 -  4) =      5.59107  eV     2   --> E    L_3       
     e(  5 -  5) =      8.39068  eV     1   --> A_1  L_1       
     e(  6 -  7) =      9.62765  eV     2   --> E    L_3       
     e(  8 -  8) =     12.49716  eV     1   --> A_1  L_1       

 **************************************************************************

 **************************************************************************

                    xk=(  -0.22500,   0.22500,   0.22500  )

     Band symmetry, C_3v (3m)   point group:

     e(  1 -  1) =     -5.09750  eV     1   --> A_1  L_1       
     e(  2 -  2) =      2.74284  eV     1   --> A_1  L_1       
     e(  3 -  4) =      5.54516  eV     2   --> E    L_3       
     e(  5 -  5) =      8.34234  eV     1   --> A_1  L_1       
     e(  6 -  7) =      9.66718  eV     2   --> E    L_3       
     e(  8 -  8) =     12.71658  eV     1   --> A_1  L_1       

 **************************************************************************

 **************************************************************************

                    xk=(  -0.23750,   0.23750,   0.23750  )

     Band symmetry, C_3v (3m)   point group:

     e(  1 -  1) =     -5.02511  eV     1   --> A_1  L_1       
     e(  2 -  2) =      2.51406  eV     1   --> A_1  L_1       
     e(  3 -  4) =      5.50057  eV     2   --> E    L_3       
     e(  5 -  5) =      8.29487  eV     1   --> A_1  L_1       
     e(  6 -  7) =      9.69916  eV     2   --> E    L_3       
     e(  8 -  8) =     12.93210  eV     1   --> A_1  L_1       

 **************************************************************************

 **************************************************************************

                    xk=(  -0.25000,   0.25000,   0.25000  )

     Band symmetry, C_3v (3m)   point group:

     e(  1 -  1) =     -4.94938  eV     1   --> A_1  L_1       
     e(  2 -  2) =      2.28807  eV     1   --> A_1  L_1       
     e(  3 -  4) =      5.45748  eV     2   --> E    L_3       
     e(  5 -  5) =      8.24856  eV     1   --> A_1  L_1       
     e(  6 -  7) =      9.72351  eV     2   --> E    L_3       
     e(  8 -  8) =     13.14215  eV     1   --> A_1  L_1       

 **************************************************************************

 **************************************************************************

                    xk=(  -0.26250,   0.26250,   0.26250  )

     Band symmetry, C_3v (3m)   point group:

     e(  1 -  1) =     -4.87043  eV     1   --> A_1  L_1       
     e(  2 -  2) =      2.06519  eV     1   --> A_1  L_1       
     e(  3 -  4) =      5.41602  eV     2   --> E    L_3       
     e(  5 -  5) =      8.20364  eV     1   --> A_1  L_1       
     e(  6 -  7) =      9.74038  eV     2   --> E    L_3       
     e(  8 -  8) =     13.34434  eV     1   --> A_1  L_1       

 **************************************************************************

 **************************************************************************

                    xk=(  -0.27500,   0.27500,   0.27500  )

     Band symmetry, C_3v (3m)   point group:

     e(  1 -  1) =     -4.78842  eV     1   --> A_1  L_1       
     e(  2 -  2) =      1.84587  eV     1   --> A_1  L_1       
     e(  3 -  4) =      5.37631  eV     2   --> E    L_3       
     e(  5 -  5) =      8.16029  eV     1   --> A_1  L_1       
     e(  6 -  7) =      9.75020  eV     2   --> E    L_3       
     e(  8 -  8) =     13.53507  eV     1   --> A_1  L_1       

 **************************************************************************

 **************************************************************************

                    xk=(  -0.28750,   0.28750,   0.28750  )

     Band symmetry, C_3v (3m)   point group:

     e(  1 -  1) =     -4.70355  eV     1   --> A_1  L_1       
     e(  2 -  2) =      1.63041  eV     1   --> A_1  L_1       
     e(  3 -  4) =      5.33843  eV     2   --> E    L_3       
     e(  5 -  5) =      8.11869  eV     1   --> A_1  L_1       
     e(  6 -  7) =      9.75361  eV     2   --> E    L_3       
     e(  8 -  8) =     13.69931  eV     1   -->   ?

 **************************************************************************

 **************************************************************************

                    xk=(  -0.30000,   0.30000,   0.30000  )

     Band symmetry, C_3v (3m)   point group:

     e(  1 -  1) =     -4.61604  eV     1   --> A_1  L_1       
     e(  2 -  2) =      1.41917  eV     1   --> A_1  L_1       
     e(  3 -  4) =      5.30246  eV     2   --> E    L_3       
     e(  5 -  5) =      8.07896  eV     1   --> A_1  L_1       
     e(  6 -  7) =      9.75138  eV     2   --> E    L_3       
     e(  8 -  8) =     13.82169  eV     1   -->   ?

 **************************************************************************

 **************************************************************************

                    xk=(  -0.31250,   0.31250,   0.31250  )

     Band symmetry, C_3v (3m)   point group:

     e(  1 -  1) =     -4.52615  eV     1   --> A_1  L_1       
     e(  2 -  2) =      1.21256  eV     1   --> A_1  L_1       
     e(  3 -  4) =      5.26848  eV     2   --> E    L_3       
     e(  5 -  5) =      8.04122  eV     1   --> A_1  L_1       
     e(  6 -  7) =      9.74440  eV     2   --> E    L_3       
     e(  8 -  8) =     13.95765  eV     1   -->   ?

 **************************************************************************

 **************************************************************************

                    xk=(  -0.32500,   0.32500,   0.32500  )

     Band symmetry, C_3v (3m)   point group:

     e(  1 -  1) =     -4.43419  eV     1   --> A_1  L_1       
     e(  2 -  2) =      1.01099  eV     1   --> A_1  L_1       
     e(  3 -  4) =      5.23654  eV     2   --> E    L_3       
     e(  5 -  5) =      8.00561  eV     1   --> A_1  L_1       
     e(  6 -  7) =      9.73358  eV     2   --> E    L_3       
     e(  8 -  8) =     14.05811  eV     1   --> A_1  L_1       

 **************************************************************************

 **************************************************************************

                    xk=(  -0.33750,   0.33750,   0.33750  )

     Band symmetry, C_3v (3m)   point group:

     e(  1 -  1) =     -4.34058  eV     1   --> A_1  L_1       
     e(  2 -  2) =      0.81497  eV     1   --> A_1  L_1       
     e(  3 -  4) =      5.20662  eV     2   --> E    L_3       
     e(  5 -  5) =      7.97212  eV     1   --> A_1  L_1       
     e(  6 -  7) =      9.71973  eV     2   --> E    L_3       
     e(  8 -  8) =     14.10399  eV     1   --> A_1  L_1       

 **************************************************************************

 **************************************************************************

                    xk=(  -0.35000,   0.35000,   0.35000  )

     Band symmetry, C_3v (3m)   point group:

     e(  1 -  1) =     -4.24577  eV     1   --> A_1  L_1       
     e(  2 -  2) =      0.62504  eV     1   --> A_1  L_1       
     e(  3 -  4) =      5.17889  eV     2   --> E    L_3       
     e(  5 -  5) =      7.94092  eV     1   --> A_1  L_1       
     e(  6 -  7) =      9.70381  eV     2   --> E    L_3       
     e(  8 -  8) =     14.12184  eV     1   --> A_1  L_1       

 **************************************************************************

 **************************************************************************

                    xk=(  -0.36250,   0.36250,   0.36250  )

     Band symmetry, C_3v (3m)   point group:

     e(  1 -  1) =     -4.15035  eV     1   --> A_1  L_1       
     e(  2 -  2) =      0.44187  eV     1   --> A_1  L_1       
     e(  3 -  4) =      5.15330  eV     2   --> E    L_3       
     e(  5 -  5) =      7.91204  eV     1   --> A_1  L_1       
     e(  6 -  7) =      9.68656  eV     2   --> E    L_3       
     e(  8 -  8) =     14.12055  eV     1   --> A_1  L_1       

 **************************************************************************

 **************************************************************************

                    xk=(  -0.37500,   0.37500,   0.37500  )

     Band symmetry, C_3v (3m)   point group:

     e(  1 -  1) =     -4.05503  eV     1   --> A_1  L_1       
     e(  2 -  2) =      0.26623  eV     1   --> A_1  L_1       
     e(  3 -  4) =      5.12985  eV     2   --> E    L_3       
     e(  5 -  5) =      7.88551  eV     1   --> A_1  L_1       
     e(  6 -  7) =      9.66859  eV     2   --> E    L_3       
     e(  8 -  8) =     14.10754  eV     1   --> A_1  L_1       

 **************************************************************************

 **************************************************************************

                    xk=(  -0.38750,   0.38750,   0.38750  )

     Band symmetry, C_3v (3m)   point group:

     e(  1 -  1) =     -3.96069  eV     1   --> A_1  L_1       
     e(  2 -  2) =      0.09906  eV     1   --> A_1  L_1       
     e(  3 -  4) =      5.10863  eV     2   --> E    L_3       
     e(  5 -  5) =      7.86142  eV     1   --> A_1  L_1       
     e(  6 -  7) =      9.65071  eV     2   --> E    L_3       
     e(  8 -  8) =     14.08813  eV     1   --> A_1  L_1       

 **************************************************************************

 **************************************************************************

                    xk=(  -0.40000,   0.40000,   0.40000  )

     Band symmetry, C_3v (3m)   point group:

     e(  1 -  1) =     -3.86841  eV     1   --> A_1  L_1       
     e(  2 -  2) =     -0.05851  eV     1   --> A_1  L_1       
     e(  3 -  4) =      5.08961  eV     2   --> E    L_3       
     e(  5 -  5) =      7.83978  eV     1   --> A_1  L_1       
     e(  6 -  7) =      9.63338  eV     2   --> E    L_3       
     e(  8 -  8) =     14.06587  eV     1   --> A_1  L_1       

 **************************************************************************

 **************************************************************************

                    xk=(  -0.41250,   0.41250,   0.41250  )

     Band symmetry, C_3v (3m)   point group:

     e(  1 -  1) =     -3.77951  eV     1   --> A_1  L_1       
     e(  2 -  2) =     -0.20510  eV     1   --> A_1  L_1       
     e(  3 -  4) =      5.07282  eV     2   --> E    L_3       
     e(  5 -  5) =      7.82069  eV     1   --> A_1  L_1       
     e(  6 -  7) =      9.61706  eV     2   --> E    L_3       
     e(  8 -  8) =     14.04311  eV     1   --> A_1  L_1       

 **************************************************************************

 **************************************************************************

                    xk=(  -0.42500,   0.42500,   0.42500  )

     Band symmetry, C_3v (3m)   point group:

     e(  1 -  1) =     -3.69562  eV     1   --> A_1  L_1       
     e(  2 -  2) =     -0.33907  eV     1   --> A_1  L_1       
     e(  3 -  4) =      5.05824  eV     2   --> E    L_3       
     e(  5 -  5) =      7.80404  eV     1   --> A_1  L_1       
     e(  6 -  7) =      9.60217  eV     2   --> E    L_3       
     e(  8 -  8) =     14.02136  eV     1   --> A_1  L_1       

 **************************************************************************

 **************************************************************************

                    xk=(  -0.43750,   0.43750,   0.43750  )

     Band symmetry, C_3v (3m)   point group:

     e(  1 -  1) =     -3.61863  eV     1   --> A_1  L_1       
     e(  2 -  2) =     -0.45849  eV     1   --> A_1  L_1       
     e(  3 -  4) =      5.04591  eV     2   --> E    L_3       
     e(  5 -  5) =      7.78992  eV     1   --> A_1  L_1       
     e(  6 -  7) =      9.58903  eV     2   --> E    L_3       
     e(  8 -  8) =     14.00171  eV     1   --> A_1  L_1       

 **************************************************************************

 **************************************************************************

                    xk=(  -0.45000,   0.45000,   0.45000  )

     Band symmetry, C_3v (3m)   point group:

     e(  1 -  1) =     -3.55074  eV     1   --> A_1  L_1       
     e(  2 -  2) =     -0.56112  eV     1   --> A_1  L_1       
     e(  3 -  4) =      5.03581  eV     2   --> E    L_3       
     e(  5 -  5) =      7.77834  eV     1   --> A_1  L_1       
     e(  6 -  7) =      9.57791  eV     2   --> E    L_3       
     e(  8 -  8) =     13.98486  eV     1   --> A_1  L_1       

 **************************************************************************

 **************************************************************************

                    xk=(  -0.46250,   0.46250,   0.46250  )

     Band symmetry, C_3v (3m)   point group:

     e(  1 -  1) =     -3.49435  eV     1   --> A_1  L_1       
     e(  2 -  2) =     -0.64456  eV     1   --> A_1  L_1       
     e(  3 -  4) =      5.02796  eV     2   --> E    L_3       
     e(  5 -  5) =      7.76933  eV     1   --> A_1  L_1       
     e(  6 -  7) =      9.56907  eV     2   --> E    L_3       
     e(  8 -  8) =     13.97133  eV     1   --> A_1  L_1       

 **************************************************************************

 **************************************************************************

                    xk=(  -0.47500,   0.47500,   0.47500  )

     Band symmetry, C_3v (3m)   point group:

     e(  1 -  1) =     -3.45185  eV     1   --> A_1  L_1       
     e(  2 -  2) =     -0.70637  eV     1   --> A_1  L_1       
     e(  3 -  4) =      5.02235  eV     2   --> E    L_3       
     e(  5 -  5) =      7.76289  eV     1   --> A_1  L_1       
     e(  6 -  7) =      9.56263  eV     2   --> E    L_3       
     e(  8 -  8) =     13.96149  eV     1   --> A_1  L_1       

 **************************************************************************

 **************************************************************************

                    xk=(  -0.48750,   0.48750,   0.48750  )

     Band symmetry, C_3v (3m)   point group:

     e(  1 -  1) =     -3.42536  eV     1   --> A_1  L_1       
     e(  2 -  2) =     -0.74446  eV     1   --> A_1  L_1       
     e(  3 -  4) =      5.01898  eV     2   --> E    L_3       
     e(  5 -  5) =      7.75902  eV     1   --> A_1  L_1       
     e(  6 -  7) =      9.55872  eV     2   --> E    L_3       
     e(  8 -  8) =     13.95548  eV     1   --> A_1  L_1       

 **************************************************************************

 **************************************************************************

                    xk=(  -0.50000,   0.50000,   0.50000  )

     zone border point and non-symmorphic group 
     symmetry decomposition not available

 **************************************************************************

     BANDS        :      1.43s CPU      1.60s WALL


   This run was terminated on:  14:12: 0   1Nov2025            

=------------------------------------------------------------------------------=
   JOB DONE.
=------------------------------------------------------------------------------=
