
     Program PWSCF v.7.4.1 starts on  1Nov2025 at 14:11:52 

     This program is part of the open-source Quantum ESPRESSO suite
     for quantum simulation of materials; please cite
         "P. Giannozzi et al., J. Phys.:Condens. Matter 21 395502 (2009);
         "P. Giannozzi et al., J. Phys.:Condens. Matter 29 465901 (2017);
         "P. Giannozzi et al., J. Chem. Phys. 152 154105 (2020);
          URL http://www.quantum-espresso.org", 
     in publications or presentations arising from this work. More details at
     http://www.quantum-espresso.org/quote

     Parallel version (MPI), running on     2 processors

     MPI processes distributed on     1 nodes
     0 MiB available memory on the printing compute node when the environment starts

     Reading input from scf.in

     Current dimensions of program PWSCF are:
     Max number of different atomic species (ntypx) = 10
     Max number of k-points (npk) =  40000
     Max angular momentum in pseudopotentials (lmaxx) =  4

     R & G space division:  proc/nbgrp/npool/nimage =       2
     Subspace diagonalization in iterative solution of the eigenvalue problem:
     a serial algorithm will be used


     Parallelization info
     --------------------
     sticks:   dense  smooth     PW     G-vecs:    dense   smooth      PW
     Min         429     216     69                 8432     2980     533
     Max         430     217     70                 8433     2981     534
     Sum         859     433    139                16865     5961    1067

     Using Slab Decomposition



     bravais-lattice index     =            2
     lattice parameter (alat)  =      10.2600  a.u.
     unit-cell volume          =     270.0114 (a.u.)^3
     number of atoms/cell      =            2
     number of atomic types    =            1
     number of electrons       =         8.00
     number of Kohn-Sham states=            8
     kinetic-energy cutoff     =      30.0000  Ry
     charge density cutoff     =     240.0000  Ry
     scf convergence threshold =      1.0E-08
     mixing beta               =       0.7000
     number of iterations used =            8  plain     mixing
     Exchange-correlation= PBE
                           (   1   4   3   4   0   0   0)

     celldm(1)=  10.260000  celldm(2)=   0.000000  celldm(3)=   0.000000
     celldm(4)=   0.000000  celldm(5)=   0.000000  celldm(6)=   0.000000

     crystal axes: (cart. coord. in units of alat)
               a(1) = (  -0.500000   0.000000   0.500000 )  
               a(2) = (   0.000000   0.500000   0.500000 )  
               a(3) = (  -0.500000   0.500000   0.000000 )  

     reciprocal axes: (cart. coord. in units 2 pi/alat)
               b(1) = ( -1.000000 -1.000000  1.000000 )  
               b(2) = (  1.000000  1.000000  1.000000 )  
               b(3) = ( -1.000000  1.000000 -1.000000 )  


     PseudoPot. # 1 for Si read from file:
     /Users/pollob/qe_macm4_build/cases/common/pp/Si.pbe-n-rrkjus_psl.1.0.0.UPF
     MD5 check sum: fa25574f73a70a4139f2adfbefec430c
     Pseudo is Ultrasoft + core correction, Zval =  4.0
     Generated using &quot;atomic&quot; code by A. Dal Corso  v.6.3
     Using radial grid of 1141 points,  6 beta functions with: 
                l(1) =   0
                l(2) =   0
                l(3) =   1
                l(4) =   1
                l(5) =   2
                l(6) =   2
     Q(r) pseudized with 0 coefficients 


     atomic species   valence    mass     pseudopotential
     Si                4.00    28.08500     Si( 1.00)

     48 Sym. Ops., with inversion, found (24 have fractional translation)



   Cartesian axes

     site n.     atom                  positions (alat units)
         1        Si     tau(   1) = (   0.0000000   0.0000000   0.0000000  )
         2        Si     tau(   2) = (  -0.2500000   0.2500000   0.2500000  )

     number of k points=    16  Methfessel-Paxton smearing, width (Ry)=  0.0200
                       cart. coord. in units 2pi/alat
        k(    1) = (   0.0000000   0.0000000   0.0000000), wk =   0.0092593
        k(    2) = (  -0.1666667   0.1666667  -0.1666667), wk =   0.0740741
        k(    3) = (  -0.3333333   0.3333333  -0.3333333), wk =   0.0740741
        k(    4) = (   0.5000000  -0.5000000   0.5000000), wk =   0.0370370
        k(    5) = (   0.0000000   0.3333333   0.0000000), wk =   0.0555556
        k(    6) = (  -0.1666667   0.5000000  -0.1666667), wk =   0.2222222
        k(    7) = (   0.6666667  -0.3333333   0.6666667), wk =   0.2222222
        k(    8) = (   0.5000000  -0.1666667   0.5000000), wk =   0.2222222
        k(    9) = (   0.3333333   0.0000000   0.3333333), wk =   0.1111111
        k(   10) = (   0.0000000   0.6666667   0.0000000), wk =   0.0555556
        k(   11) = (   0.8333333  -0.1666667   0.8333333), wk =   0.2222222
        k(   12) = (   0.6666667  -0.0000000   0.6666667), wk =   0.1111111
        k(   13) = (   0.0000000  -1.0000000   0.0000000), wk =   0.0277778
        k(   14) = (   0.6666667  -0.3333333   1.0000000), wk =   0.2222222
        k(   15) = (   0.5000000  -0.1666667   0.8333333), wk =   0.2222222
        k(   16) = (  -0.3333333  -1.0000000   0.0000000), wk =   0.1111111

     Dense  grid:    16865 G-vectors     FFT dimensions: (  36,  36,  36)

     Smooth grid:     5961 G-vectors     FFT dimensions: (  32,  32,  32)

     Estimated max dynamical RAM per process >      31.48 MB

     Estimated total dynamical RAM >      62.97 MB

     Initial potential from superposition of free atoms

     starting charge       7.9989, renormalised to       8.0000
     Starting wfcs are    8 randomized atomic wfcs

     total cpu time spent up to now is        0.2 secs

     Self-consistent Calculation

     iteration #  1     ecut=    30.00 Ry     beta= 0.70
     Davidson diagonalization with overlap
     ethr =  1.00E-02,  avg # of iterations =  3.4

     Threshold (ethr) on eigenvalues was too large:
     Diagonalizing with lowered threshold

     Davidson diagonalization with overlap
     ethr =  6.58E-04,  avg # of iterations =  2.2

     total cpu time spent up to now is        0.3 secs

     total energy              =     -22.83530298 Ry
     estimated scf accuracy    <       0.05672916 Ry

     iteration #  2     ecut=    30.00 Ry     beta= 0.70
     Davidson diagonalization with overlap
     ethr =  7.09E-04,  avg # of iterations =  1.1

     total cpu time spent up to now is        0.4 secs

     WARNING: integrated charge=     7.99899467, expected=     8.00000000

     total energy              =     -22.83822091 Ry
     estimated scf accuracy    <       0.00225265 Ry

     iteration #  3     ecut=    30.00 Ry     beta= 0.70
     Davidson diagonalization with overlap
     ethr =  2.82E-05,  avg # of iterations =  4.2

     total cpu time spent up to now is        0.4 secs

     WARNING: integrated charge=     7.99843328, expected=     8.00000000

     total energy              =     -22.83854249 Ry
     estimated scf accuracy    <       0.00004825 Ry

     iteration #  4     ecut=    30.00 Ry     beta= 0.70
     Davidson diagonalization with overlap
     ethr =  6.03E-07,  avg # of iterations =  3.2

     total cpu time spent up to now is        0.5 secs

     WARNING: integrated charge=     7.99851654, expected=     8.00000000

     total energy              =     -22.83848834 Ry
     estimated scf accuracy    <       0.00000015 Ry

     iteration #  5     ecut=    30.00 Ry     beta= 0.70
     Davidson diagonalization with overlap
     ethr =  1.82E-09,  avg # of iterations =  3.6

     total cpu time spent up to now is        0.6 secs

     End of self-consistent calculation

          k = 0.0000 0.0000 0.0000 (   725 PWs)   bands (ev):

    -5.7496   6.2191   6.2191   6.2191   8.7792   8.7792   8.7792   9.5877

          k =-0.1667 0.1667-0.1667 (   748 PWs)   bands (ev):

    -5.3882   3.8354   5.7674   5.7674   8.5701   9.4279   9.4279  11.6758

          k =-0.3333 0.3333-0.3333 (   751 PWs)   bands (ev):

    -4.3721   0.8795   5.2163   5.2163   7.9829   9.7246   9.7247  14.0943

          k = 0.5000-0.5000 0.5000 (   754 PWs)   bands (ev):

    -3.4165  -0.7575   5.0177   5.0177   7.7575   9.5573   9.5573  13.9530

          k = 0.0000 0.3333 0.0000 (   753 PWs)   bands (ev):

    -5.2653   4.1801   5.0231   5.0231   7.9216  10.5218  10.5648  10.5648

          k =-0.1667 0.5000-0.1667 (   750 PWs)   bands (ev):

    -4.4495   1.7790   4.2230   4.4692   8.1830  10.2863  10.7455  11.2957

          k = 0.6667-0.3333 0.6667 (   752 PWs)   bands (ev):

    -3.2572  -0.3925   3.4383   4.4391   8.2602  10.3371  10.8414  12.6438

          k = 0.5000-0.1667 0.5000 (   757 PWs)   bands (ev):

    -3.6425   0.2074   3.1671   4.9189   8.6706  10.3445  10.4480  13.5165

          k = 0.3333 0.0000 0.3333 (   748 PWs)   bands (ev):

    -4.7997   2.4988   3.8022   5.6528   9.2590   9.7755  10.0698  11.8875

          k = 0.0000 0.6667 0.0000 (   749 PWs)   bands (ev):

    -3.8444   1.2051   3.7968   3.7968   6.9442   8.2104  13.4860  13.4860

          k = 0.8333-0.1667 0.8333 (   749 PWs)   bands (ev):

    -2.6798  -0.3507   2.5813   3.6602   7.2808   8.9368  13.6730  13.7044

          k = 0.6667-0.0000 0.6667 (   740 PWs)   bands (ev):

    -2.4833  -0.5561   1.7997   4.1031   7.7851  12.0255  12.6965  13.3008

          k = 0.0000-1.0000 0.0000 (   740 PWs)   bands (ev):

    -1.6029  -1.6029   3.3617   3.3617   6.9273   6.9273  16.3268  16.3268

          k = 0.6667-0.3333 1.0000 (   748 PWs)   bands (ev):

    -3.4589   0.5713   2.6439   3.9199   9.0727   9.9357  10.4553  13.2890

          k = 0.5000-0.1667 0.8333 (   738 PWs)   bands (ev):

    -2.4732  -0.6293   2.2037   3.4526   9.5761   9.7779  12.3243  12.7411

          k =-0.3333-1.0000 0.0000 (   742 PWs)   bands (ev):

    -1.4828  -1.4828   2.5683   2.5683   8.9686   8.9686  12.9864  12.9864

     the Fermi energy is     6.4571 ev

     WARNING: integrated charge=     7.99854386, expected=     8.00000000

!    total energy              =     -22.83848108 Ry
     estimated scf accuracy    <          7.1E-09 Ry
     smearing contrib. (-TS)   =       0.00010305 Ry
     internal energy E=F+TS    =     -22.83858413 Ry

     The total energy is F=E-TS. E is the sum of the following terms:
     one-electron contribution =       5.16876489 Ry
     hartree contribution      =       1.10448698 Ry
     xc contribution           =     -12.31090643 Ry
     ewald contribution        =     -16.80092958 Ry

     convergence has been achieved in   5 iterations

     Writing all to output data dir ./tmp_cutoff_30/cutoff_30.save/ :
     XML data file, charge density, pseudopotentials, collected wavefunctions

     init_run     :      0.09s CPU      0.11s WALL (       1 calls)
     electrons    :      0.41s CPU      0.44s WALL (       1 calls)

     Called by init_run:
     wfcinit      :      0.02s CPU      0.02s WALL (       1 calls)
     potinit      :      0.01s CPU      0.01s WALL (       1 calls)
     hinit0       :      0.05s CPU      0.05s WALL (       1 calls)

     Called by electrons:
     c_bands      :      0.26s CPU      0.27s WALL (       6 calls)
     sum_band     :      0.09s CPU      0.10s WALL (       6 calls)
     v_of_rho     :      0.02s CPU      0.02s WALL (       6 calls)
     newd         :      0.04s CPU      0.05s WALL (       6 calls)
     mix_rho      :      0.00s CPU      0.00s WALL (       6 calls)

     Called by c_bands:
     init_us_2    :      0.01s CPU      0.01s WALL (     208 calls)
     cegterg      :      0.24s CPU      0.26s WALL (      96 calls)

     Called by *egterg:
     cdiaghg      :      0.01s CPU      0.01s WALL (     364 calls)
     h_psi        :      0.21s CPU      0.22s WALL (     396 calls)
     s_psi        :      0.01s CPU      0.01s WALL (     396 calls)
     g_psi        :      0.00s CPU      0.00s WALL (     284 calls)

     Called by h_psi:
     h_psi:calbec :      0.01s CPU      0.01s WALL (     396 calls)
     vloc_psi     :      0.19s CPU      0.19s WALL (     396 calls)
     add_vuspsi   :      0.01s CPU      0.01s WALL (     396 calls)

     General routines
     calbec       :      0.01s CPU      0.02s WALL (     492 calls)
     fft          :      0.01s CPU      0.01s WALL (      77 calls)
     ffts         :      0.00s CPU      0.00s WALL (      12 calls)
     fftw         :      0.19s CPU      0.20s WALL (    5148 calls)
     interpolate  :      0.00s CPU      0.00s WALL (       6 calls)

     Parallel routines

     PWSCF        :      0.54s CPU      0.61s WALL


   This run was terminated on:  14:11:53   1Nov2025            

=------------------------------------------------------------------------------=
   JOB DONE.
=------------------------------------------------------------------------------=
Note: The following floating-point exceptions are signalling: IEEE_UNDERFLOW_FLAG
Note: The following floating-point exceptions are signalling: IEEE_INVALID_FLAG IEEE_DIVIDE_BY_ZERO IEEE_UNDERFLOW_FLAG
