
     Program BANDS v.7.4.1 starts on  1Nov2025 at 14:12:45 

     This program is part of the open-source Quantum ESPRESSO suite
     for quantum simulation of materials; please cite
         "P. Giannozzi et al., J. Phys.:Condens. Matter 21 395502 (2009);
         "P. Giannozzi et al., J. Phys.:Condens. Matter 29 465901 (2017);
         "P. Giannozzi et al., J. Chem. Phys. 152 154105 (2020);
          URL http://www.quantum-espresso.org", 
     in publications or presentations arising from this work. More details at
     http://www.quantum-espresso.org/quote

     Parallel version (MPI), running on     2 processors

     MPI processes distributed on     1 nodes
     R & G space division:  proc/nbgrp/npool/nimage =       2
     0 MiB available memory on the printing compute node when the environment starts


     Reading xml data from directory:

     ./tmp_cutoff_60/cutoff_60.save/

     IMPORTANT: XC functional enforced from input :
     Exchange-correlation= PBE
                           (   1   4   3   4   0   0   0)
     Any further DFT definition will be discarded
     Please, verify this is what you really want


     Parallelization info
     --------------------
     sticks:   dense  smooth     PW     G-vecs:    dense   smooth      PW
     Min         867     429    126                23914     8432    1365
     Max         868     430    127                23917     8433    1368
     Sum        1735     859    253                47831    16865    2733

     Using Slab Decomposition

     Reading collected, re-writing distributed wavefunctions
     high-symmetry point:  0.0000 0.0000 0.0000   x coordinate   0.0000
     high-symmetry point: -1.0000 0.0000 0.0000   x coordinate   1.0000
     high-symmetry point: -1.0000 0.5000 0.0000   x coordinate   1.5000
     high-symmetry point: -0.7500 0.7500 0.0000   x coordinate   1.8536
     high-symmetry point:  0.0000 0.0000 0.0000   x coordinate   2.9142
     high-symmetry point: -0.5000 0.5000 0.5000   x coordinate   3.7802

     Plottable bands (eV) written to file silicon.bands.dat.gnu
     Bands written to file silicon.bands.dat

 **************************************************************************

                    xk=(   0.00000,   0.00000,   0.00000  )

     point group O_h (m-3m) 
     there are 10 classes
     the character table:

       E     8C3   3C2   6C4   6C2'  i     8S6   3s_h  6S4   6s_d 
A_1g   1.00  1.00  1.00  1.00  1.00  1.00  1.00  1.00  1.00  1.00
A_2g   1.00  1.00  1.00 -1.00 -1.00  1.00  1.00  1.00 -1.00 -1.00
E_g    2.00 -1.00  2.00  0.00  0.00  2.00 -1.00  2.00  0.00  0.00
T_1g   3.00  0.00 -1.00  1.00 -1.00  3.00  0.00 -1.00  1.00 -1.00
T_2g   3.00  0.00 -1.00 -1.00  1.00  3.00  0.00 -1.00 -1.00  1.00
A_1u   1.00  1.00  1.00  1.00  1.00 -1.00 -1.00 -1.00 -1.00 -1.00
A_2u   1.00  1.00  1.00 -1.00 -1.00 -1.00 -1.00 -1.00  1.00  1.00
E_u    2.00 -1.00  2.00  0.00  0.00 -2.00  1.00 -2.00  0.00  0.00
T_1u   3.00  0.00 -1.00  1.00 -1.00 -3.00  0.00  1.00 -1.00  1.00
T_2u   3.00  0.00 -1.00 -1.00  1.00 -3.00  0.00  1.00  1.00 -1.00

     the symmetry operations in each class and the name of the first element:

     E        1
                                                                 
     8C3     17   19   20   18   24   21   22   23
                                                                 
     3C2      2    4    3
                                                                 
     6C4      7    8   15   16   12   11
                                                                 
     6C2'     5    6   14   13   10    9
                                                                 
     i       25
                                                                 
     8S6     41   43   44   42   48   45   46   47
                                                                 
     3s_h    26   28   27
                                                                 
     6S4     31   32   39   40   36   35
                                                                 
     6s_d    29   30   38   37   34   33
                                                                 

     Band symmetry, O_h (m-3m)  point group:

     e(  1 -  1) =     -5.74981  eV     1   --> A_1g G_1   G_1+
     e(  2 -  4) =      6.21857  eV     3   --> T_2g G_25' G_5+
     e(  5 -  7) =      8.77849  eV     3   --> T_1u G_15  G_4-
     e(  8 -  8) =      9.58775  eV     1   --> A_2u G_2'  G_2-

 **************************************************************************

 **************************************************************************

                    xk=(  -0.02500,   0.00000,   0.00000  )

     point group C_4v (4mm) 
     there are  5 classes
     the character table:

       E     2C4   C2    2s_v  2s_d 
A_1    1.00  1.00  1.00  1.00  1.00
A_2    1.00  1.00  1.00 -1.00 -1.00
B_1    1.00 -1.00  1.00  1.00 -1.00
B_2    1.00 -1.00  1.00 -1.00  1.00
E      2.00  0.00 -2.00  0.00  0.00

     the symmetry operations in each class and the name of the first element:

     E        1
                                                                 
     2C4      3    4
                                                                 
     C2       2
                                                                 
     2s_v     5    6
                                                                 
     2s_d     7    8
                                                                 

     Band symmetry, C_4v (4mm)  point group:

     e(  1 -  1) =     -5.74707  eV     1   --> A_1  G_1 D_1   
     e(  2 -  2) =      6.19965  eV     1   --> B_2  G_4 D_2'  
     e(  3 -  4) =      6.20657  eV     2   --> E    G_5 D_5   
     e(  5 -  5) =      8.77166  eV     1   --> A_1  G_1 D_1   
     e(  6 -  7) =      8.79387  eV     2   --> E    G_5 D_5   
     e(  8 -  8) =      9.60631  eV     1   --> B_2  G_4 D_2'  

 **************************************************************************

 **************************************************************************

                    xk=(  -0.05000,   0.00000,   0.00000  )

     Band symmetry, C_4v (4mm)  point group:

     e(  1 -  1) =     -5.73886  eV     1   --> A_1  G_1 D_1   
     e(  2 -  2) =      6.14416  eV     1   --> B_2  G_4 D_2'  
     e(  3 -  4) =      6.17145  eV     2   --> E    G_5 D_5   
     e(  5 -  5) =      8.75139  eV     1   --> A_1  G_1 D_1   
     e(  6 -  7) =      8.83911  eV     2   --> E    G_5 D_5   
     e(  8 -  8) =      9.66051  eV     1   --> B_2  G_4 D_2'  

 **************************************************************************

 **************************************************************************

                    xk=(  -0.07500,   0.00000,   0.00000  )

     Band symmetry, C_4v (4mm)  point group:

     e(  1 -  1) =     -5.72518  eV     1   --> A_1  G_1 D_1   
     e(  2 -  2) =      6.05558  eV     1   --> B_2  G_4 D_2'  
     e(  3 -  4) =      6.11557  eV     2   --> E    G_5 D_5   
     e(  5 -  5) =      8.71828  eV     1   --> A_1  G_1 D_1   
     e(  6 -  7) =      8.91184  eV     2   --> E    G_5 D_5   
     e(  8 -  8) =      9.74629  eV     1   --> B_2  G_4 D_2'  

 **************************************************************************

 **************************************************************************

                    xk=(  -0.10000,   0.00000,   0.00000  )

     Band symmetry, C_4v (4mm)  point group:

     e(  1 -  1) =     -5.70602  eV     1   --> A_1  G_1 D_1   
     e(  2 -  2) =      5.93862  eV     1   --> B_2  G_4 D_2'  
     e(  3 -  4) =      6.04222  eV     2   --> E    G_5 D_5   
     e(  5 -  5) =      8.67328  eV     1   --> A_1  G_1 D_1   
     e(  6 -  7) =      9.00877  eV     2   --> E    G_5 D_5   
     e(  8 -  8) =      9.85781  eV     1   --> B_2  G_4 D_2'  

 **************************************************************************

 **************************************************************************

                    xk=(  -0.12500,   0.00000,   0.00000  )

     Band symmetry, C_4v (4mm)  point group:

     e(  1 -  1) =     -5.68141  eV     1   --> A_1  G_1 D_1   
     e(  2 -  2) =      5.79830  eV     1   --> B_2  G_4 D_2'  
     e(  3 -  4) =      5.95490  eV     2   --> E    G_5 D_5   
     e(  5 -  5) =      8.61759  eV     1   --> A_1  G_1 D_1   
     e(  6 -  7) =      9.12633  eV     2   --> E    G_5 D_5   
     e(  8 -  8) =      9.98827  eV     1   --> B_2  G_4 D_2'  

 **************************************************************************

 **************************************************************************

                    xk=(  -0.15000,   0.00000,   0.00000  )

     Band symmetry, C_4v (4mm)  point group:

     e(  1 -  1) =     -5.65134  eV     1   --> A_1  G_1 D_1   
     e(  2 -  2) =      5.63928  eV     1   --> B_2  G_4 D_2'  
     e(  3 -  4) =      5.85697  eV     2   --> E    G_5 D_5   
     e(  5 -  5) =      8.55259  eV     1   --> A_1  G_1 D_1   
     e(  6 -  7) =      9.26116  eV     2   --> E    G_5 D_5   
     e(  8 -  8) =     10.13020  eV     1   --> B_2  G_4 D_2'  

 **************************************************************************

 **************************************************************************

                    xk=(  -0.17500,   0.00000,   0.00000  )

     Band symmetry, C_4v (4mm)  point group:

     e(  1 -  1) =     -5.61583  eV     1   --> A_1  G_1 D_1   
     e(  2 -  2) =      5.46550  eV     1   --> B_2  G_4 D_2'  
     e(  3 -  4) =      5.75131  eV     2   --> E    G_5 D_5   
     e(  5 -  5) =      8.47970  eV     1   --> A_1  G_1 D_1   
     e(  6 -  7) =      9.41032  eV     2   --> E    G_5 D_5   
     e(  8 -  8) =     10.27530  eV     1   --> B_2  G_4 D_2'  

 **************************************************************************

 **************************************************************************

                    xk=(  -0.20000,   0.00000,   0.00000  )

     Band symmetry, C_4v (4mm)  point group:

     e(  1 -  1) =     -5.57488  eV     1   --> A_1  G_1 D_1   
     e(  2 -  2) =      5.28019  eV     1   --> B_2  G_4 D_2'  
     e(  3 -  4) =      5.64032  eV     2   --> E    G_5 D_5   
     e(  5 -  5) =      8.40037  eV     1   --> A_1  G_1 D_1   
     e(  6 -  7) =      9.57136  eV     2   --> E    G_5 D_5   
     e(  8 -  8) =     10.41376  eV     1   --> B_2  G_4 D_2'  

 **************************************************************************

 **************************************************************************

                    xk=(  -0.22500,   0.00000,   0.00000  )

     Band symmetry, C_4v (4mm)  point group:

     e(  1 -  1) =     -5.52852  eV     1   --> A_1  G_1 D_1   
     e(  2 -  2) =      5.08588  eV     1   --> B_2  G_4 D_2'  
     e(  3 -  4) =      5.52594  eV     2   --> E    G_5 D_5   
     e(  5 -  5) =      8.31598  eV     1   --> A_1  G_1 D_1   
     e(  6 -  7) =      9.74229  eV     2   --> E    G_5 D_5   
     e(  8 -  8) =     10.53333  eV     1   --> B_2  G_4 D_2'  

 **************************************************************************

 **************************************************************************

                    xk=(  -0.25000,   0.00000,   0.00000  )

     Band symmetry, C_4v (4mm)  point group:

     e(  1 -  1) =     -5.47677  eV     1   --> A_1  G_1 D_1   
     e(  2 -  2) =      4.88455  eV     1   --> B_2  G_4 D_2'  
     e(  3 -  4) =      5.40971  eV     2   --> E    G_5 D_5   
     e(  5 -  5) =      8.22783  eV     1   --> A_1  G_1 D_1   
     e(  6 -  7) =      9.92151  eV     2   --> E    G_5 D_5   
     e(  8 -  8) =     10.61915  eV     1   --> B_2  G_4 D_2'  

 **************************************************************************

 **************************************************************************

                    xk=(  -0.27500,   0.00000,   0.00000  )

     Band symmetry, C_4v (4mm)  point group:

     e(  1 -  1) =     -5.41963  eV     1   --> A_1  G_1 D_1   
     e(  2 -  2) =      4.67771  eV     1   --> B_2  G_4 D_2'  
     e(  3 -  4) =      5.29285  eV     2   --> E    G_5 D_5   
     e(  5 -  5) =      8.13709  eV     1   --> A_1  G_1 D_1   
     e(  6 -  7) =     10.10773  eV     2   --> E    G_5 D_5   
     e(  8 -  8) =     10.65614  eV     1   --> B_2  G_4 D_2'  

 **************************************************************************

 **************************************************************************

                    xk=(  -0.30000,   0.00000,   0.00000  )

     Band symmetry, C_4v (4mm)  point group:

     e(  1 -  1) =     -5.35713  eV     1   --> A_1  G_1 D_1   
     e(  2 -  2) =      4.46655  eV     1   --> B_2  G_4 D_2'  
     e(  3 -  4) =      5.17634  eV     2   --> E    G_5 D_5   
     e(  5 -  5) =      8.04485  eV     1   --> A_1  G_1 D_1   
     e(  6 -  7) =     10.29993  eV     2   --> E    G_5 D_5   
     e(  8 -  8) =     10.63509  eV     1   --> B_2  G_4 D_2'  

 **************************************************************************

 **************************************************************************

                    xk=(  -0.32500,   0.00000,   0.00000  )

     Band symmetry, C_4v (4mm)  point group:

     e(  1 -  1) =     -5.28929  eV     1   --> A_1  G_1 D_1   
     e(  2 -  2) =      4.25198  eV     1   --> B_2  G_4 D_2'  
     e(  3 -  4) =      5.06094  eV     2   --> E    G_5 D_5   
     e(  5 -  5) =      7.95206  eV     1   --> A_1  G_1 D_1   
     e(  6 -  7) =     10.49727  eV     2   --> E    G_5 D_5   
     e(  8 -  8) =     10.55792  eV     1   --> B_2  G_4 D_2'  

 **************************************************************************

 **************************************************************************

                    xk=(  -0.35000,   0.00000,   0.00000  )

     Band symmetry, C_4v (4mm)  point group:

     e(  1 -  1) =     -5.21613  eV     1   --> A_1  G_1 D_1   
     e(  2 -  2) =      4.03471  eV     1   --> B_2  G_4 D_2'  
     e(  3 -  4) =      4.94729  eV     2   --> E    G_5 D_5   
     e(  5 -  5) =      7.85956  eV     1   --> A_1  G_1 D_1   
     e(  6 -  6) =     10.43576  eV     1   --> B_2  G_4 D_2'  
     e(  7 -  8) =     10.69906  eV     2   --> E    G_5 D_5   

 **************************************************************************

 **************************************************************************

                    xk=(  -0.37500,   0.00000,   0.00000  )

     Band symmetry, C_4v (4mm)  point group:

     e(  1 -  1) =     -5.13770  eV     1   --> A_1  G_1 D_1   
     e(  2 -  2) =      3.81532  eV     1   --> B_2  G_4 D_2'  
     e(  3 -  4) =      4.83589  eV     2   --> E    G_5 D_5   
     e(  5 -  5) =      7.76810  eV     1   --> A_1  G_1 D_1   
     e(  6 -  6) =     10.28226  eV     1   --> B_2  G_4 D_2'  
     e(  7 -  8) =     10.90473  eV     2   --> E    G_5 D_5   

 **************************************************************************

 **************************************************************************

                    xk=(  -0.40000,   0.00000,   0.00000  )

     Band symmetry, C_4v (4mm)  point group:

     e(  1 -  1) =     -5.05400  eV     1   --> A_1  G_1 D_1   
     e(  2 -  2) =      3.59426  eV     1   --> B_2  G_4 D_2'  
     e(  3 -  4) =      4.72716  eV     2   --> E    G_5 D_5   
     e(  5 -  5) =      7.67835  eV     1   --> A_1  G_1 D_1   
     e(  6 -  6) =     10.10902  eV     1   --> B_2  G_4 D_2'  
     e(  7 -  8) =     11.11382  eV     2   --> E    G_5 D_5   

 **************************************************************************

 **************************************************************************

                    xk=(  -0.42500,   0.00000,   0.00000  )

     Band symmetry, C_4v (4mm)  point group:

     e(  1 -  1) =     -4.96509  eV     1   --> A_1  G_1 D_1   
     e(  2 -  2) =      3.37190  eV     1   --> B_2  G_4 D_2'  
     e(  3 -  4) =      4.62143  eV     2   --> E    G_5 D_5   
     e(  5 -  5) =      7.59087  eV     1   --> A_1  G_1 D_1   
     e(  6 -  6) =      9.92446  eV     1   --> B_2  G_4 D_2'  
     e(  7 -  8) =     11.32594  eV     2   --> E    G_5 D_5   

 **************************************************************************

 **************************************************************************

                    xk=(  -0.45000,   0.00000,   0.00000  )

     Band symmetry, C_4v (4mm)  point group:

     e(  1 -  1) =     -4.87098  eV     1   --> A_1  G_1 D_1   
     e(  2 -  2) =      3.14855  eV     1   --> B_2  G_4 D_2'  
     e(  3 -  4) =      4.51900  eV     2   --> E    G_5 D_5   
     e(  5 -  5) =      7.50618  eV     1   --> A_1  G_1 D_1   
     e(  6 -  6) =      9.73437  eV     1   --> B_2  G_4 D_2'  
     e(  7 -  8) =     11.54076  eV     2   --> E    G_5 D_5   

 **************************************************************************

 **************************************************************************

                    xk=(  -0.47500,   0.00000,   0.00000  )

     Band symmetry, C_4v (4mm)  point group:

     e(  1 -  1) =     -4.77173  eV     1   --> A_1  G_1 D_1   
     e(  2 -  2) =      2.92447  eV     1   --> B_2  G_4 D_2'  
     e(  3 -  4) =      4.42010  eV     2   --> E    G_5 D_5   
     e(  5 -  5) =      7.42473  eV     1   --> A_1  G_1 D_1   
     e(  6 -  6) =      9.54271  eV     1   --> B_2  G_4 D_2'  
     e(  7 -  8) =     11.75801  eV     2   --> E    G_5 D_5   

 **************************************************************************

 **************************************************************************

                    xk=(  -0.50000,   0.00000,   0.00000  )

     Band symmetry, C_4v (4mm)  point group:

     e(  1 -  1) =     -4.66736  eV     1   --> A_1  G_1 D_1   
     e(  2 -  2) =      2.69990  eV     1   --> B_2  G_4 D_2'  
     e(  3 -  4) =      4.32495  eV     2   --> E    G_5 D_5   
     e(  5 -  5) =      7.34692  eV     1   --> A_1  G_1 D_1   
     e(  6 -  6) =      9.35220  eV     1   --> B_2  G_4 D_2'  
     e(  7 -  8) =     11.97745  eV     2   --> E    G_5 D_5   

 **************************************************************************

 **************************************************************************

                    xk=(  -0.52500,   0.00000,   0.00000  )

     Band symmetry, C_4v (4mm)  point group:

     e(  1 -  1) =     -4.55794  eV     1   --> A_1  G_1 D_1   
     e(  2 -  2) =      2.47506  eV     1   --> B_2  G_4 D_2'  
     e(  3 -  4) =      4.23370  eV     2   --> E    G_5 D_5   
     e(  5 -  5) =      7.27311  eV     1   --> A_1  G_1 D_1   
     e(  6 -  6) =      9.16476  eV     1   --> B_2  G_4 D_2'  
     e(  7 -  8) =     12.19889  eV     2   --> E    G_5 D_5   

 **************************************************************************

 **************************************************************************

                    xk=(  -0.55000,   0.00000,   0.00000  )

     Band symmetry, C_4v (4mm)  point group:

     e(  1 -  1) =     -4.44349  eV     1   --> A_1  G_1 D_1   
     e(  2 -  2) =      2.25013  eV     1   --> B_2  G_4 D_2'  
     e(  3 -  4) =      4.14651  eV     2   --> E    G_5 D_5   
     e(  5 -  5) =      7.20360  eV     1   --> A_1  G_1 D_1   
     e(  6 -  6) =      8.98178  eV     1   --> B_2  G_4 D_2'  
     e(  7 -  8) =     12.42217  eV     2   --> E    G_5 D_5   

 **************************************************************************

 **************************************************************************

                    xk=(  -0.57500,   0.00000,   0.00000  )

     Band symmetry, C_4v (4mm)  point group:

     e(  1 -  1) =     -4.32408  eV     1   --> A_1  G_1 D_1   
     e(  2 -  2) =      2.02531  eV     1   --> B_2  G_4 D_2'  
     e(  3 -  4) =      4.06351  eV     2   --> E    G_5 D_5   
     e(  5 -  5) =      7.13869  eV     1   --> A_1  G_1 D_1   
     e(  6 -  6) =      8.80425  eV     1   --> B_2  G_4 D_2'  
     e(  7 -  8) =     12.64717  eV     2   --> E    G_5 D_5   

 **************************************************************************

 **************************************************************************

                    xk=(  -0.60000,   0.00000,   0.00000  )

     Band symmetry, C_4v (4mm)  point group:

     e(  1 -  1) =     -4.19975  eV     1   --> A_1  G_1 D_1   
     e(  2 -  2) =      1.80079  eV     1   --> B_2  G_4 D_2'  
     e(  3 -  4) =      3.98481  eV     2   --> E    G_5 D_5   
     e(  5 -  5) =      7.07864  eV     1   --> A_1  G_1 D_1   
     e(  6 -  6) =      8.63292  eV     1   --> B_2  G_4 D_2'  
     e(  7 -  8) =     12.87377  eV     2   --> E    G_5 D_5   

 **************************************************************************

 **************************************************************************

                    xk=(  -0.62500,   0.00000,   0.00000  )

     Band symmetry, C_4v (4mm)  point group:

     e(  1 -  1) =     -4.07057  eV     1   --> A_1  G_1 D_1   
     e(  2 -  2) =      1.57674  eV     1   --> B_2  G_4 D_2'  
     e(  3 -  4) =      3.91050  eV     2   --> E    G_5 D_5   
     e(  5 -  5) =      7.02367  eV     1   --> A_1  G_1 D_1   
     e(  6 -  6) =      8.46833  eV     1   --> B_2  G_4 D_2'  
     e(  7 -  8) =     13.10187  eV     2   --> E    G_5 D_5   

 **************************************************************************

 **************************************************************************

                    xk=(  -0.65000,   0.00000,   0.00000  )

     Band symmetry, C_4v (4mm)  point group:

     e(  1 -  1) =     -3.93660  eV     1   --> A_1  G_1 D_1   
     e(  2 -  2) =      1.35335  eV     1   --> B_2  G_4 D_2'  
     e(  3 -  4) =      3.84067  eV     2   --> E    G_5 D_5   
     e(  5 -  5) =      6.97401  eV     1   --> A_1  G_1 D_1   
     e(  6 -  6) =      8.31091  eV     1   --> B_2  G_4 D_2'  
     e(  7 -  8) =     13.33140  eV     2   --> E    G_5 D_5   

 **************************************************************************

 **************************************************************************

                    xk=(  -0.67500,   0.00000,   0.00000  )

     Band symmetry, C_4v (4mm)  point group:

     e(  1 -  1) =     -3.79790  eV     1   --> A_1  G_1 D_1   
     e(  2 -  2) =      1.13080  eV     1   --> B_2  G_4 D_2'  
     e(  3 -  4) =      3.77539  eV     2   --> E    G_5 D_5   
     e(  5 -  5) =      6.92985  eV     1   --> A_1  G_1 D_1   
     e(  6 -  6) =      8.16094  eV     1   --> B_2  G_4 D_2'  
     e(  7 -  8) =     13.56227  eV     2   --> E    G_5 D_5   

 **************************************************************************

 **************************************************************************

                    xk=(  -0.70000,   0.00000,   0.00000  )

     Band symmetry, C_4v (4mm)  point group:

     e(  1 -  1) =     -3.65454  eV     1   --> A_1  G_1 D_1   
     e(  2 -  2) =      0.90926  eV     1   --> B_2  G_4 D_2'  
     e(  3 -  4) =      3.71473  eV     2   --> E    G_5 D_5   
     e(  5 -  5) =      6.89136  eV     1   --> A_1  G_1 D_1   
     e(  6 -  6) =      8.01865  eV     1   --> B_2  G_4 D_2'  
     e(  7 -  8) =     13.79442  eV     2   --> E    G_5 D_5   

 **************************************************************************

 **************************************************************************

                    xk=(  -0.72500,   0.00000,   0.00000  )

     Band symmetry, C_4v (4mm)  point group:

     e(  1 -  1) =     -3.50660  eV     1   --> A_1  G_1 D_1   
     e(  2 -  2) =      0.68894  eV     1   --> B_2  G_4 D_2'  
     e(  3 -  4) =      3.65874  eV     2   --> E    G_5 D_5   
     e(  5 -  5) =      6.85873  eV     1   --> A_1  G_1 D_1   
     e(  6 -  6) =      7.88417  eV     1   --> B_2  G_4 D_2'  
     e(  7 -  8) =     14.02774  eV     2   --> E    G_5 D_5   

 **************************************************************************

 **************************************************************************

                    xk=(  -0.75000,   0.00000,   0.00000  )

     Band symmetry, C_4v (4mm)  point group:

     e(  1 -  1) =     -3.35415  eV     1   --> A_1  G_1 D_1   
     e(  2 -  2) =      0.47000  eV     1   --> B_2  G_4 D_2'  
     e(  3 -  4) =      3.60748  eV     2   --> E    G_5 D_5   
     e(  5 -  5) =      6.83211  eV     1   --> A_1  G_1 D_1   
     e(  6 -  6) =      7.75762  eV     1   --> B_2  G_4 D_2'  
     e(  7 -  8) =     14.26213  eV     2   --> E    G_5 D_5   

 **************************************************************************

 **************************************************************************

                    xk=(  -0.77500,   0.00000,   0.00000  )

     Band symmetry, C_4v (4mm)  point group:

     e(  1 -  1) =     -3.19728  eV     1   --> A_1  G_1 D_1   
     e(  2 -  2) =      0.25264  eV     1   --> B_2  G_4 D_2'  
     e(  3 -  4) =      3.56097  eV     2   --> E    G_5 D_5   
     e(  5 -  5) =      6.81166  eV     1   --> A_1  G_1 D_1   
     e(  6 -  6) =      7.63905  eV     1   --> B_2  G_4 D_2'  
     e(  7 -  8) =     14.49741  eV     2   --> E    G_5 D_5   

 **************************************************************************

 **************************************************************************

                    xk=(  -0.80000,   0.00000,   0.00000  )

     Band symmetry, C_4v (4mm)  point group:

     e(  1 -  1) =     -3.03609  eV     1   --> A_1  G_1 D_1   
     e(  2 -  2) =      0.03704  eV     1   --> B_2  G_4 D_2'  
     e(  3 -  4) =      3.51928  eV     2   --> E    G_5 D_5   
     e(  5 -  5) =      6.79751  eV     1   --> A_1  G_1 D_1   
     e(  6 -  6) =      7.52847  eV     1   --> B_2  G_4 D_2'  
     e(  7 -  8) =     14.73334  eV     2   --> E    G_5 D_5   

 **************************************************************************

 **************************************************************************

                    xk=(  -0.82500,   0.00000,   0.00000  )

     Band symmetry, C_4v (4mm)  point group:

     e(  1 -  1) =     -2.87066  eV     1   --> A_1  G_1 D_1   
     e(  2 -  2) =     -0.17662  eV     1   --> B_2  G_4 D_2'  
     e(  3 -  4) =      3.48241  eV     2   --> E    G_5 D_5   
     e(  5 -  5) =      6.78981  eV     1   --> A_1  G_1 D_1   
     e(  6 -  6) =      7.42587  eV     1   --> B_2  G_4 D_2'  
     e(  7 -  8) =     14.96950  eV     2   --> E    G_5 D_5   

 **************************************************************************

 **************************************************************************

                    xk=(  -0.85000,   0.00000,   0.00000  )

     Band symmetry, C_4v (4mm)  point group:

     e(  1 -  1) =     -2.70109  eV     1   --> A_1  G_1 D_1   
     e(  2 -  2) =     -0.38816  eV     1   --> B_2  G_4 D_2'  
     e(  3 -  4) =      3.45041  eV     2   --> E    G_5 D_5   
     e(  5 -  5) =      6.78869  eV     1   --> A_1  G_1 D_1   
     e(  6 -  6) =      7.33124  eV     1   --> B_2  G_4 D_2'  
     e(  7 -  8) =     15.20524  eV     2   --> E    G_5 D_5   

 **************************************************************************

 **************************************************************************

                    xk=(  -0.87500,   0.00000,   0.00000  )

     Band symmetry, C_4v (4mm)  point group:

     e(  1 -  1) =     -2.52749  eV     1   --> A_1  G_1 D_1   
     e(  2 -  2) =     -0.59740  eV     1   --> B_2  G_4 D_2'  
     e(  3 -  4) =      3.42329  eV     2   --> E    G_5 D_5   
     e(  5 -  5) =      6.79428  eV     1   --> A_1  G_1 D_1   
     e(  6 -  6) =      7.24451  eV     1   --> B_2  G_4 D_2'  
     e(  7 -  8) =     15.43943  eV     2   --> E    G_5 D_5   

 **************************************************************************

 **************************************************************************

                    xk=(  -0.90000,   0.00000,   0.00000  )

     Band symmetry, C_4v (4mm)  point group:

     e(  1 -  1) =     -2.34998  eV     1   --> A_1  G_1 D_1   
     e(  2 -  2) =     -0.80416  eV     1   --> B_2  G_4 D_2'  
     e(  3 -  4) =      3.40108  eV     2   --> E    G_5 D_5   
     e(  5 -  5) =      6.80669  eV     1   --> A_1  G_1 D_1   
     e(  6 -  6) =      7.16564  eV     1   --> B_2  G_4 D_2'  
     e(  7 -  8) =     15.66991  eV     2   --> E    G_5 D_5   

 **************************************************************************

 **************************************************************************

                    xk=(  -0.92500,   0.00000,   0.00000  )

     Band symmetry, C_4v (4mm)  point group:

     e(  1 -  1) =     -2.16866  eV     1   --> A_1  G_1 D_1   
     e(  2 -  2) =     -1.00828  eV     1   --> B_2  G_4 D_2'  
     e(  3 -  4) =      3.38379  eV     2   --> E    G_5 D_5   
     e(  5 -  5) =      6.82606  eV     1   --> A_1  G_1 D_1   
     e(  6 -  6) =      7.09454  eV     1   --> B_2  G_4 D_2'  
     e(  7 -  8) =     15.89233  eV     2   --> E    G_5 D_5   

 **************************************************************************

 **************************************************************************

                    xk=(  -0.95000,   0.00000,   0.00000  )

     Band symmetry, C_4v (4mm)  point group:

     e(  1 -  1) =     -1.98366  eV     1   --> A_1  G_1 D_1   
     e(  2 -  2) =     -1.20960  eV     1   --> B_2  G_4 D_2'  
     e(  3 -  4) =      3.37143  eV     2   --> E    G_5 D_5   
     e(  5 -  5) =      6.85249  eV     1   --> A_1  G_1 D_1   
     e(  6 -  6) =      7.03113  eV     1   --> B_2  G_4 D_2'  
     e(  7 -  8) =     16.09679  eV     2   --> E    G_5 D_5   

 **************************************************************************

 **************************************************************************

                    xk=(  -0.97500,   0.00000,   0.00000  )

     Band symmetry, C_4v (4mm)  point group:

     e(  1 -  1) =     -1.79512  eV     1   --> A_1  G_1 D_1   
     e(  2 -  2) =     -1.40794  eV     1   --> B_2  G_4 D_2'  
     e(  3 -  4) =      3.36401  eV     2   --> E    G_5 D_5   
     e(  5 -  5) =      6.88611  eV     1   --> A_1  G_1 D_1   
     e(  6 -  6) =      6.97532  eV     1   --> B_2  G_4 D_2'  
     e(  7 -  8) =     16.25876  eV     2   --> E    G_5 D_5   

 **************************************************************************

 **************************************************************************

                    xk=(  -1.00000,   0.00000,   0.00000  )

     zone border point and non-symmorphic group 
     symmetry decomposition not available

 **************************************************************************

 **************************************************************************

                    xk=(  -1.00000,   0.01250,   0.00000  )

     zone border point and non-symmorphic group 
     symmetry decomposition not available

 **************************************************************************

 **************************************************************************

                    xk=(  -1.00000,   0.02500,   0.00000  )

     zone border point and non-symmorphic group 
     symmetry decomposition not available

 **************************************************************************

 **************************************************************************

                    xk=(  -1.00000,   0.03750,   0.00000  )

     zone border point and non-symmorphic group 
     symmetry decomposition not available

 **************************************************************************

 **************************************************************************

                    xk=(  -1.00000,   0.05000,   0.00000  )

     zone border point and non-symmorphic group 
     symmetry decomposition not available

 **************************************************************************

 **************************************************************************

                    xk=(  -1.00000,   0.06250,   0.00000  )

     zone border point and non-symmorphic group 
     symmetry decomposition not available

 **************************************************************************

 **************************************************************************

                    xk=(  -1.00000,   0.07500,   0.00000  )

     zone border point and non-symmorphic group 
     symmetry decomposition not available

 **************************************************************************

 **************************************************************************

                    xk=(  -1.00000,   0.08750,   0.00000  )

     zone border point and non-symmorphic group 
     symmetry decomposition not available

 **************************************************************************

 **************************************************************************

                    xk=(  -1.00000,   0.10000,   0.00000  )

     zone border point and non-symmorphic group 
     symmetry decomposition not available

 **************************************************************************

 **************************************************************************

                    xk=(  -1.00000,   0.11250,   0.00000  )

     zone border point and non-symmorphic group 
     symmetry decomposition not available

 **************************************************************************

 **************************************************************************

                    xk=(  -1.00000,   0.12500,   0.00000  )

     zone border point and non-symmorphic group 
     symmetry decomposition not available

 **************************************************************************

 **************************************************************************

                    xk=(  -1.00000,   0.13750,   0.00000  )

     zone border point and non-symmorphic group 
     symmetry decomposition not available

 **************************************************************************

 **************************************************************************

                    xk=(  -1.00000,   0.15000,   0.00000  )

     zone border point and non-symmorphic group 
     symmetry decomposition not available

 **************************************************************************

 **************************************************************************

                    xk=(  -1.00000,   0.16250,   0.00000  )

     zone border point and non-symmorphic group 
     symmetry decomposition not available

 **************************************************************************

 **************************************************************************

                    xk=(  -1.00000,   0.17500,   0.00000  )

     zone border point and non-symmorphic group 
     symmetry decomposition not available

 **************************************************************************

 **************************************************************************

                    xk=(  -1.00000,   0.18750,   0.00000  )

     zone border point and non-symmorphic group 
     symmetry decomposition not available

 **************************************************************************

 **************************************************************************

                    xk=(  -1.00000,   0.20000,   0.00000  )

     zone border point and non-symmorphic group 
     symmetry decomposition not available

 **************************************************************************

 **************************************************************************

                    xk=(  -1.00000,   0.21250,   0.00000  )

     zone border point and non-symmorphic group 
     symmetry decomposition not available

 **************************************************************************

 **************************************************************************

                    xk=(  -1.00000,   0.22500,   0.00000  )

     zone border point and non-symmorphic group 
     symmetry decomposition not available

 **************************************************************************

 **************************************************************************

                    xk=(  -1.00000,   0.23750,   0.00000  )

     zone border point and non-symmorphic group 
     symmetry decomposition not available

 **************************************************************************

 **************************************************************************

                    xk=(  -1.00000,   0.25000,   0.00000  )

     zone border point and non-symmorphic group 
     symmetry decomposition not available

 **************************************************************************

 **************************************************************************

                    xk=(  -1.00000,   0.26250,   0.00000  )

     zone border point and non-symmorphic group 
     symmetry decomposition not available

 **************************************************************************

 **************************************************************************

                    xk=(  -1.00000,   0.27500,   0.00000  )

     zone border point and non-symmorphic group 
     symmetry decomposition not available

 **************************************************************************

 **************************************************************************

                    xk=(  -1.00000,   0.28750,   0.00000  )

     zone border point and non-symmorphic group 
     symmetry decomposition not available

 **************************************************************************

 **************************************************************************

                    xk=(  -1.00000,   0.30000,   0.00000  )

     zone border point and non-symmorphic group 
     symmetry decomposition not available

 **************************************************************************

 **************************************************************************

                    xk=(  -1.00000,   0.31250,   0.00000  )

     zone border point and non-symmorphic group 
     symmetry decomposition not available

 **************************************************************************

 **************************************************************************

                    xk=(  -1.00000,   0.32500,   0.00000  )

     zone border point and non-symmorphic group 
     symmetry decomposition not available

 **************************************************************************

 **************************************************************************

                    xk=(  -1.00000,   0.33750,   0.00000  )

     zone border point and non-symmorphic group 
     symmetry decomposition not available

 **************************************************************************

 **************************************************************************

                    xk=(  -1.00000,   0.35000,   0.00000  )

     zone border point and non-symmorphic group 
     symmetry decomposition not available

 **************************************************************************

 **************************************************************************

                    xk=(  -1.00000,   0.36250,   0.00000  )

     zone border point and non-symmorphic group 
     symmetry decomposition not available

 **************************************************************************

 **************************************************************************

                    xk=(  -1.00000,   0.37500,   0.00000  )

     zone border point and non-symmorphic group 
     symmetry decomposition not available

 **************************************************************************

 **************************************************************************

                    xk=(  -1.00000,   0.38750,   0.00000  )

     zone border point and non-symmorphic group 
     symmetry decomposition not available

 **************************************************************************

 **************************************************************************

                    xk=(  -1.00000,   0.40000,   0.00000  )

     zone border point and non-symmorphic group 
     symmetry decomposition not available

 **************************************************************************

 **************************************************************************

                    xk=(  -1.00000,   0.41250,   0.00000  )

     zone border point and non-symmorphic group 
     symmetry decomposition not available

 **************************************************************************

 **************************************************************************

                    xk=(  -1.00000,   0.42500,   0.00000  )

     zone border point and non-symmorphic group 
     symmetry decomposition not available

 **************************************************************************

 **************************************************************************

                    xk=(  -1.00000,   0.43750,   0.00000  )

     zone border point and non-symmorphic group 
     symmetry decomposition not available

 **************************************************************************

 **************************************************************************

                    xk=(  -1.00000,   0.45000,   0.00000  )

     zone border point and non-symmorphic group 
     symmetry decomposition not available

 **************************************************************************

 **************************************************************************

                    xk=(  -1.00000,   0.46250,   0.00000  )

     zone border point and non-symmorphic group 
     symmetry decomposition not available

 **************************************************************************

 **************************************************************************

                    xk=(  -1.00000,   0.47500,   0.00000  )

     zone border point and non-symmorphic group 
     symmetry decomposition not available

 **************************************************************************

 **************************************************************************

                    xk=(  -1.00000,   0.48750,   0.00000  )

     zone border point and non-symmorphic group 
     symmetry decomposition not available

 **************************************************************************

 **************************************************************************

                    xk=(  -1.00000,   0.50000,   0.00000  )

     zone border point and non-symmorphic group 
     symmetry decomposition not available

 **************************************************************************

 **************************************************************************

                    xk=(  -0.99375,   0.50625,   0.00000  )

     point group C_s (m)    
     there are  2 classes
     the character table:

       E     s    
A'     1.00  1.00
A''    1.00 -1.00

     the symmetry operations in each class and the name of the first element:

     E        1
                                                                 
     s        2
                                                                 

     Band symmetry, C_s (m)     point group:

     e(  1 -  1) =     -1.46724  eV     1   --> A'             
     e(  2 -  2) =     -1.41069  eV     1   --> A''            
     e(  3 -  3) =      2.33864  eV     1   --> A'             
     e(  4 -  4) =      2.38271  eV     1   --> A''            
     e(  5 -  5) =     10.45532  eV     1   --> A''            
     e(  6 -  6) =     10.51031  eV     1   --> A'             
     e(  7 -  7) =     11.21321  eV     1   --> A''            
     e(  8 -  8) =     11.24930  eV     1   --> A'             

 **************************************************************************

 **************************************************************************

                    xk=(  -0.98750,   0.51250,   0.00000  )

     Band symmetry, C_s (m)     point group:

     e(  1 -  1) =     -1.49493  eV     1   --> A'             
     e(  2 -  2) =     -1.38372  eV     1   --> A''            
     e(  3 -  3) =      2.31768  eV     1   --> A'             
     e(  4 -  4) =      2.40734  eV     1   --> A''            
     e(  5 -  5) =     10.39383  eV     1   --> A''            
     e(  6 -  6) =     10.52475  eV     1   --> A'             
     e(  7 -  7) =     11.23154  eV     1   --> A''            
     e(  8 -  8) =     11.28217  eV     1   --> A'             

 **************************************************************************

 **************************************************************************

                    xk=(  -0.98125,   0.51875,   0.00000  )

     Band symmetry, C_s (m)     point group:

     e(  1 -  1) =     -1.52191  eV     1   --> A'             
     e(  2 -  2) =     -1.35793  eV     1   --> A''            
     e(  3 -  3) =      2.29719  eV     1   --> A'             
     e(  4 -  4) =      2.43394  eV     1   --> A''            
     e(  5 -  5) =     10.31343  eV     1   --> A''            
     e(  6 -  6) =     10.53484  eV     1   --> A'             
     e(  7 -  7) =     11.27050  eV     1   --> A''            
     e(  8 -  8) =     11.32046  eV     1   --> A'             

 **************************************************************************

 **************************************************************************

                    xk=(  -0.97500,   0.52500,   0.00000  )

     Band symmetry, C_s (m)     point group:

     e(  1 -  1) =     -1.54819  eV     1   --> A'             
     e(  2 -  2) =     -1.33332  eV     1   --> A''            
     e(  3 -  3) =      2.27717  eV     1   --> A'             
     e(  4 -  4) =      2.46247  eV     1   --> A''            
     e(  5 -  5) =     10.22066  eV     1   --> A''            
     e(  6 -  6) =     10.54105  eV     1   --> A'             
     e(  7 -  7) =     11.32359  eV     1   --> A''            
     e(  8 -  8) =     11.36368  eV     1   --> A'             

 **************************************************************************

 **************************************************************************

                    xk=(  -0.96875,   0.53125,   0.00000  )

     Band symmetry, C_s (m)     point group:

     e(  1 -  1) =     -1.57376  eV     1   --> A'             
     e(  2 -  2) =     -1.30989  eV     1   --> A''            
     e(  3 -  3) =      2.25762  eV     1   --> A'             
     e(  4 -  4) =      2.49289  eV     1   --> A''            
     e(  5 -  5) =     10.12022  eV     1   --> A''            
     e(  6 -  6) =     10.54394  eV     1   --> A'             
     e(  7 -  7) =     11.38614  eV     1   --> A''            
     e(  8 -  8) =     11.41127  eV     1   --> A'             

 **************************************************************************

 **************************************************************************

                    xk=(  -0.96250,   0.53750,   0.00000  )

     Band symmetry, C_s (m)     point group:

     e(  1 -  1) =     -1.59862  eV     1   --> A'             
     e(  2 -  2) =     -1.28762  eV     1   --> A''            
     e(  3 -  3) =      2.23857  eV     1   --> A'             
     e(  4 -  4) =      2.52514  eV     1   --> A''            
     e(  5 -  5) =     10.01517  eV     1   --> A''            
     e(  6 -  6) =     10.54404  eV     1   --> A'             
     e(  7 -  7) =     11.45512  eV     1   --> A''            
     e(  8 -  8) =     11.46268  eV     1   --> A'             

 **************************************************************************

 **************************************************************************

                    xk=(  -0.95625,   0.54375,   0.00000  )

     Band symmetry, C_s (m)     point group:

     e(  1 -  1) =     -1.62277  eV     1   --> A'             
     e(  2 -  2) =     -1.26650  eV     1   --> A''            
     e(  3 -  3) =      2.22000  eV     1   --> A'             
     e(  4 -  4) =      2.55918  eV     1   --> A''            
     e(  5 -  5) =      9.90744  eV     1   --> A''            
     e(  6 -  6) =     10.54186  eV     1   --> A'             
     e(  7 -  7) =     11.51738  eV     1   --> A'             
     e(  8 -  8) =     11.52865  eV     1   --> A''            

 **************************************************************************

 **************************************************************************

                    xk=(  -0.95000,   0.55000,   0.00000  )

     Band symmetry, C_s (m)     point group:

     e(  1 -  1) =     -1.64621  eV     1   --> A'             
     e(  2 -  2) =     -1.24651  eV     1   --> A''            
     e(  3 -  3) =      2.20194  eV     1   --> A'             
     e(  4 -  4) =      2.59495  eV     1   --> A''            
     e(  5 -  5) =      9.79826  eV     1   --> A''            
     e(  6 -  6) =     10.53787  eV     1   --> A'             
     e(  7 -  7) =     11.57490  eV     1   --> A'             
     e(  8 -  8) =     11.60554  eV     1   --> A''            

 **************************************************************************

 **************************************************************************

                    xk=(  -0.94375,   0.55625,   0.00000  )

     Band symmetry, C_s (m)     point group:

     e(  1 -  1) =     -1.66894  eV     1   --> A'             
     e(  2 -  2) =     -1.22763  eV     1   --> A''            
     e(  3 -  3) =      2.18438  eV     1   --> A'             
     e(  4 -  4) =      2.63236  eV     1   --> A''            
     e(  5 -  5) =      9.68847  eV     1   --> A''            
     e(  6 -  6) =     10.53244  eV     1   --> A'             
     e(  7 -  7) =     11.63486  eV     1   --> A'             
     e(  8 -  8) =     11.68499  eV     1   --> A''            

 **************************************************************************

 **************************************************************************

                    xk=(  -0.93750,   0.56250,   0.00000  )

     Band symmetry, C_s (m)     point group:

     e(  1 -  1) =     -1.69095  eV     1   --> A'             
     e(  2 -  2) =     -1.20983  eV     1   --> A''            
     e(  3 -  3) =      2.16732  eV     1   --> A'             
     e(  4 -  4) =      2.67134  eV     1   --> A''            
     e(  5 -  5) =      9.57864  eV     1   --> A''            
     e(  6 -  6) =     10.52590  eV     1   --> A'             
     e(  7 -  7) =     11.69689  eV     1   --> A'             
     e(  8 -  8) =     11.76650  eV     1   --> A''            

 **************************************************************************

 **************************************************************************

                    xk=(  -0.93125,   0.56875,   0.00000  )

     Band symmetry, C_s (m)     point group:

     e(  1 -  1) =     -1.71226  eV     1   --> A'             
     e(  2 -  2) =     -1.19309  eV     1   --> A''            
     e(  3 -  3) =      2.15078  eV     1   --> A'             
     e(  4 -  4) =      2.71180  eV     1   --> A''            
     e(  5 -  5) =      9.46919  eV     1   --> A''            
     e(  6 -  6) =     10.51852  eV     1   --> A'             
     e(  7 -  7) =     11.76073  eV     1   --> A'             
     e(  8 -  8) =     11.84970  eV     1   --> A''            

 **************************************************************************

 **************************************************************************

                    xk=(  -0.92500,   0.57500,   0.00000  )

     Band symmetry, C_s (m)     point group:

     e(  1 -  1) =     -1.73284  eV     1   --> A'             
     e(  2 -  2) =     -1.17737  eV     1   --> A''            
     e(  3 -  3) =      2.13476  eV     1   --> A'             
     e(  4 -  4) =      2.75365  eV     1   --> A''            
     e(  5 -  5) =      9.36043  eV     1   --> A''            
     e(  6 -  6) =     10.51052  eV     1   --> A'             
     e(  7 -  7) =     11.82614  eV     1   --> A'             
     e(  8 -  8) =     11.93433  eV     1   --> A''            

 **************************************************************************

 **************************************************************************

                    xk=(  -0.91875,   0.58125,   0.00000  )

     Band symmetry, C_s (m)     point group:

     e(  1 -  1) =     -1.75272  eV     1   --> A'             
     e(  2 -  2) =     -1.16264  eV     1   --> A''            
     e(  3 -  3) =      2.11927  eV     1   --> A'             
     e(  4 -  4) =      2.79679  eV     1   --> A''            
     e(  5 -  5) =      9.25262  eV     1   --> A''            
     e(  6 -  6) =     10.50208  eV     1   --> A'             
     e(  7 -  7) =     11.89291  eV     1   --> A'             
     e(  8 -  8) =     12.02020  eV     1   --> A''            

 **************************************************************************

 **************************************************************************

                    xk=(  -0.91250,   0.58750,   0.00000  )

     Band symmetry, C_s (m)     point group:

     e(  1 -  1) =     -1.77187  eV     1   --> A'             
     e(  2 -  2) =     -1.14886  eV     1   --> A''            
     e(  3 -  3) =      2.10430  eV     1   --> A'             
     e(  4 -  4) =      2.84110  eV     1   --> A''            
     e(  5 -  5) =      9.14597  eV     1   --> A''            
     e(  6 -  6) =     10.49335  eV     1   --> A'             
     e(  7 -  7) =     11.96088  eV     1   --> A'             
     e(  8 -  8) =     12.10716  eV     1   --> A''            

 **************************************************************************

 **************************************************************************

                    xk=(  -0.90625,   0.59375,   0.00000  )

     Band symmetry, C_s (m)     point group:

     e(  1 -  1) =     -1.79031  eV     1   --> A'             
     e(  2 -  2) =     -1.13600  eV     1   --> A''            
     e(  3 -  3) =      2.08986  eV     1   --> A'             
     e(  4 -  4) =      2.88646  eV     1   --> A''            
     e(  5 -  5) =      9.04067  eV     1   --> A''            
     e(  6 -  6) =     10.48445  eV     1   --> A'             
     e(  7 -  7) =     12.02991  eV     1   --> A'             
     e(  8 -  8) =     12.19512  eV     1   --> A''            

 **************************************************************************

 **************************************************************************

                    xk=(  -0.90000,   0.60000,   0.00000  )

     Band symmetry, C_s (m)     point group:

     e(  1 -  1) =     -1.80804  eV     1   --> A'             
     e(  2 -  2) =     -1.12402  eV     1   --> A''            
     e(  3 -  3) =      2.07596  eV     1   --> A'             
     e(  4 -  4) =      2.93275  eV     1   --> A''            
     e(  5 -  5) =      8.93690  eV     1   --> A''            
     e(  6 -  6) =     10.47549  eV     1   --> A'             
     e(  7 -  7) =     12.09987  eV     1   --> A'             
     e(  8 -  8) =     12.28397  eV     1   --> A''            

 **************************************************************************

 **************************************************************************

                    xk=(  -0.89375,   0.60625,   0.00000  )

     Band symmetry, C_s (m)     point group:

     e(  1 -  1) =     -1.82504  eV     1   --> A'             
     e(  2 -  2) =     -1.11288  eV     1   --> A''            
     e(  3 -  3) =      2.06260  eV     1   --> A'             
     e(  4 -  4) =      2.97982  eV     1   --> A''            
     e(  5 -  5) =      8.83481  eV     1   --> A''            
     e(  6 -  6) =     10.46654  eV     1   --> A'             
     e(  7 -  7) =     12.17066  eV     1   --> A'             
     e(  8 -  8) =     12.37366  eV     1   --> A''            

 **************************************************************************

 **************************************************************************

                    xk=(  -0.88750,   0.61250,   0.00000  )

     Band symmetry, C_s (m)     point group:

     e(  1 -  1) =     -1.84133  eV     1   --> A'             
     e(  2 -  2) =     -1.10255  eV     1   --> A''            
     e(  3 -  3) =      2.04979  eV     1   --> A'             
     e(  4 -  4) =      3.02753  eV     1   --> A''            
     e(  5 -  5) =      8.73457  eV     1   --> A''            
     e(  6 -  6) =     10.45768  eV     1   --> A'             
     e(  7 -  7) =     12.24218  eV     1   --> A'             
     e(  8 -  8) =     12.46411  eV     1   --> A''            

 **************************************************************************

 **************************************************************************

                    xk=(  -0.88125,   0.61875,   0.00000  )

     Band symmetry, C_s (m)     point group:

     e(  1 -  1) =     -1.85689  eV     1   --> A'             
     e(  2 -  2) =     -1.09298  eV     1   --> A''            
     e(  3 -  3) =      2.03752  eV     1   --> A'             
     e(  4 -  4) =      3.07571  eV     1   --> A''            
     e(  5 -  5) =      8.63635  eV     1   --> A''            
     e(  6 -  6) =     10.44898  eV     1   --> A'             
     e(  7 -  7) =     12.31435  eV     1   --> A'             
     e(  8 -  8) =     12.55529  eV     1   --> A''            

 **************************************************************************

 **************************************************************************

                    xk=(  -0.87500,   0.62500,   0.00000  )

     Band symmetry, C_s (m)     point group:

     e(  1 -  1) =     -1.87174  eV     1   --> A'             
     e(  2 -  2) =     -1.08414  eV     1   --> A''            
     e(  3 -  3) =      2.02580  eV     1   --> A'             
     e(  4 -  4) =      3.12420  eV     1   --> A''            
     e(  5 -  5) =      8.54030  eV     1   --> A''            
     e(  6 -  6) =     10.44047  eV     1   --> A'             
     e(  7 -  7) =     12.38709  eV     1   --> A'             
     e(  8 -  8) =     12.64714  eV     1   --> A''            

 **************************************************************************

 **************************************************************************

                    xk=(  -0.86875,   0.63125,   0.00000  )

     Band symmetry, C_s (m)     point group:

     e(  1 -  1) =     -1.88586  eV     1   --> A'             
     e(  2 -  2) =     -1.07598  eV     1   --> A''            
     e(  3 -  3) =      2.01463  eV     1   --> A'             
     e(  4 -  4) =      3.17281  eV     1   --> A''            
     e(  5 -  5) =      8.44660  eV     1   --> A''            
     e(  6 -  6) =     10.43220  eV     1   --> A'             
     e(  7 -  7) =     12.46033  eV     1   --> A'             
     e(  8 -  8) =     12.73963  eV     1   --> A''            

 **************************************************************************

 **************************************************************************

                    xk=(  -0.86250,   0.63750,   0.00000  )

     Band symmetry, C_s (m)     point group:

     e(  1 -  1) =     -1.89927  eV     1   --> A'             
     e(  2 -  2) =     -1.06849  eV     1   --> A''            
     e(  3 -  3) =      2.00402  eV     1   --> A'             
     e(  4 -  4) =      3.22136  eV     1   --> A''            
     e(  5 -  5) =      8.35542  eV     1   --> A''            
     e(  6 -  6) =     10.42421  eV     1   --> A'             
     e(  7 -  7) =     12.53399  eV     1   --> A'             
     e(  8 -  8) =     12.83271  eV     1   --> A''            

 **************************************************************************

 **************************************************************************

                    xk=(  -0.85625,   0.64375,   0.00000  )

     Band symmetry, C_s (m)     point group:

     e(  1 -  1) =     -1.91195  eV     1   --> A'             
     e(  2 -  2) =     -1.06161  eV     1   --> A''            
     e(  3 -  3) =      1.99397  eV     1   --> A'             
     e(  4 -  4) =      3.26962  eV     1   --> A''            
     e(  5 -  5) =      8.26698  eV     1   --> A''            
     e(  6 -  6) =     10.41653  eV     1   --> A'             
     e(  7 -  7) =     12.60800  eV     1   --> A'             
     e(  8 -  8) =     12.92636  eV     1   --> A''            

 **************************************************************************

 **************************************************************************

                    xk=(  -0.85000,   0.65000,   0.00000  )

     Band symmetry, C_s (m)     point group:

     e(  1 -  1) =     -1.92391  eV     1   --> A'             
     e(  2 -  2) =     -1.05531  eV     1   --> A''            
     e(  3 -  3) =      1.98448  eV     1   --> A'             
     e(  4 -  4) =      3.31738  eV     1   --> A''            
     e(  5 -  5) =      8.18145  eV     1   --> A''            
     e(  6 -  6) =     10.40919  eV     1   --> A'             
     e(  7 -  7) =     12.68230  eV     1   --> A'             
     e(  8 -  8) =     13.02054  eV     1   --> A''            

 **************************************************************************

 **************************************************************************

                    xk=(  -0.84375,   0.65625,   0.00000  )

     Band symmetry, C_s (m)     point group:

     e(  1 -  1) =     -1.93515  eV     1   --> A'             
     e(  2 -  2) =     -1.04957  eV     1   --> A''            
     e(  3 -  3) =      1.97556  eV     1   --> A'             
     e(  4 -  4) =      3.36441  eV     1   --> A''            
     e(  5 -  5) =      8.09908  eV     1   --> A''            
     e(  6 -  6) =     10.40220  eV     1   --> A'             
     e(  7 -  7) =     12.75680  eV     1   --> A'             
     e(  8 -  8) =     13.11522  eV     1   --> A''            

 **************************************************************************

 **************************************************************************

                    xk=(  -0.83750,   0.66250,   0.00000  )

     Band symmetry, C_s (m)     point group:

     e(  1 -  1) =     -1.94566  eV     1   --> A'             
     e(  2 -  2) =     -1.04435  eV     1   --> A''            
     e(  3 -  3) =      1.96720  eV     1   --> A'             
     e(  4 -  4) =      3.41045  eV     1   --> A''            
     e(  5 -  5) =      8.02008  eV     1   --> A''            
     e(  6 -  6) =     10.39559  eV     1   --> A'             
     e(  7 -  7) =     12.83142  eV     1   --> A'             
     e(  8 -  8) =     13.21036  eV     1   --> A''            

 **************************************************************************

 **************************************************************************

                    xk=(  -0.83125,   0.66875,   0.00000  )

     Band symmetry, C_s (m)     point group:

     e(  1 -  1) =     -1.95545  eV     1   --> A'             
     e(  2 -  2) =     -1.03962  eV     1   --> A''            
     e(  3 -  3) =      1.95941  eV     1   --> A'             
     e(  4 -  4) =      3.45523  eV     1   --> A''            
     e(  5 -  5) =      7.94470  eV     1   --> A''            
     e(  6 -  6) =     10.38938  eV     1   --> A'             
     e(  7 -  7) =     12.90608  eV     1   --> A'             
     e(  8 -  8) =     13.30592  eV     1   --> A''            

 **************************************************************************

 **************************************************************************

                    xk=(  -0.82500,   0.67500,   0.00000  )

     Band symmetry, C_s (m)     point group:

     e(  1 -  1) =     -1.96452  eV     1   --> A'             
     e(  2 -  2) =     -1.03535  eV     1   --> A''            
     e(  3 -  3) =      1.95219  eV     1   --> A'             
     e(  4 -  4) =      3.49848  eV     1   --> A''            
     e(  5 -  5) =      7.87321  eV     1   --> A''            
     e(  6 -  6) =     10.38358  eV     1   --> A'             
     e(  7 -  7) =     12.98065  eV     1   --> A'             
     e(  8 -  8) =     13.40186  eV     1   --> A''            

 **************************************************************************

 **************************************************************************

                    xk=(  -0.81875,   0.68125,   0.00000  )

     Band symmetry, C_s (m)     point group:

     e(  1 -  1) =     -1.97286  eV     1   --> A'             
     e(  2 -  2) =     -1.03152  eV     1   --> A''            
     e(  3 -  3) =      1.94553  eV     1   --> A'             
     e(  4 -  4) =      3.53990  eV     1   --> A''            
     e(  5 -  5) =      7.80588  eV     1   --> A''            
     e(  6 -  6) =     10.37820  eV     1   --> A'             
     e(  7 -  7) =     13.05502  eV     1   --> A'             
     e(  8 -  8) =     13.49813  eV     1   --> A''            

 **************************************************************************

 **************************************************************************

                    xk=(  -0.81250,   0.68750,   0.00000  )

     Band symmetry, C_s (m)     point group:

     e(  1 -  1) =     -1.98048  eV     1   --> A'             
     e(  2 -  2) =     -1.02811  eV     1   --> A''            
     e(  3 -  3) =      1.93946  eV     1   --> A'             
     e(  4 -  4) =      3.57918  eV     1   --> A''            
     e(  5 -  5) =      7.74299  eV     1   --> A''            
     e(  6 -  6) =     10.37325  eV     1   --> A'             
     e(  7 -  7) =     13.12900  eV     1   --> A'             
     e(  8 -  8) =     13.59468  eV     1   --> A''            

 **************************************************************************

 **************************************************************************

                    xk=(  -0.80625,   0.69375,   0.00000  )

     Band symmetry, C_s (m)     point group:

     e(  1 -  1) =     -1.98737  eV     1   --> A'             
     e(  2 -  2) =     -1.02509  eV     1   --> A''            
     e(  3 -  3) =      1.93395  eV     1   --> A'             
     e(  4 -  4) =      3.61602  eV     1   --> A''            
     e(  5 -  5) =      7.68485  eV     1   --> A''            
     e(  6 -  6) =     10.36875  eV     1   --> A'             
     e(  7 -  7) =     13.20240  eV     1   --> A'             
     e(  8 -  8) =     13.69143  eV     1   --> A''            

 **************************************************************************

 **************************************************************************

                    xk=(  -0.80000,   0.70000,   0.00000  )

     Band symmetry, C_s (m)     point group:

     e(  1 -  1) =     -1.99354  eV     1   --> A'             
     e(  2 -  2) =     -1.02243  eV     1   --> A''            
     e(  3 -  3) =      1.92903  eV     1   --> A'             
     e(  4 -  4) =      3.65010  eV     1   --> A''            
     e(  5 -  5) =      7.63176  eV     1   --> A''            
     e(  6 -  6) =     10.36471  eV     1   --> A'             
     e(  7 -  7) =     13.27491  eV     1   --> A'             
     e(  8 -  8) =     13.78828  eV     1   --> A''            

 **************************************************************************

 **************************************************************************

                    xk=(  -0.79375,   0.70625,   0.00000  )

     Band symmetry, C_s (m)     point group:

     e(  1 -  1) =     -1.99899  eV     1   --> A'             
     e(  2 -  2) =     -1.02014  eV     1   --> A''            
     e(  3 -  3) =      1.92468  eV     1   --> A'             
     e(  4 -  4) =      3.68111  eV     1   --> A''            
     e(  5 -  5) =      7.58401  eV     1   --> A''            
     e(  6 -  6) =     10.36112  eV     1   --> A'             
     e(  7 -  7) =     13.34613  eV     1   --> A'             
     e(  8 -  8) =     13.88509  eV     1   --> A''            

 **************************************************************************

 **************************************************************************

                    xk=(  -0.78750,   0.71250,   0.00000  )

     Band symmetry, C_s (m)     point group:

     e(  1 -  1) =     -2.00370  eV     1   --> A'             
     e(  2 -  2) =     -1.01818  eV     1   --> A''            
     e(  3 -  3) =      1.92091  eV     1   --> A'             
     e(  4 -  4) =      3.70872  eV     1   --> A''            
     e(  5 -  5) =      7.54190  eV     1   --> A''            
     e(  6 -  6) =     10.35800  eV     1   --> A'             
     e(  7 -  7) =     13.41545  eV     1   --> A'             
     e(  8 -  8) =     13.98166  eV     1   --> A''            

 **************************************************************************

 **************************************************************************

                    xk=(  -0.78125,   0.71875,   0.00000  )

     Band symmetry, C_s (m)     point group:

     e(  1 -  1) =     -2.00770  eV     1   --> A'             
     e(  2 -  2) =     -1.01655  eV     1   --> A''            
     e(  3 -  3) =      1.91771  eV     1   --> A'             
     e(  4 -  4) =      3.73267  eV     1   --> A''            
     e(  5 -  5) =      7.50572  eV     1   --> A''            
     e(  6 -  6) =     10.35536  eV     1   --> A'             
     e(  7 -  7) =     13.48196  eV     1   --> A'             
     e(  8 -  8) =     14.07764  eV     1   --> A''            

 **************************************************************************

 **************************************************************************

                    xk=(  -0.77500,   0.72500,   0.00000  )

     Band symmetry, C_s (m)     point group:

     e(  1 -  1) =     -2.01096  eV     1   --> A'             
     e(  2 -  2) =     -1.01522  eV     1   --> A''            
     e(  3 -  3) =      1.91510  eV     1   --> A'             
     e(  4 -  4) =      3.75267  eV     1   --> A''            
     e(  5 -  5) =      7.47572  eV     1   --> A''            
     e(  6 -  6) =     10.35318  eV     1   --> A'             
     e(  7 -  7) =     13.54425  eV     1   --> A'             
     e(  8 -  8) =     14.17241  eV     1   --> A''            

 **************************************************************************

 **************************************************************************

                    xk=(  -0.76875,   0.73125,   0.00000  )

     Band symmetry, C_s (m)     point group:

     e(  1 -  1) =     -2.01350  eV     1   --> A'             
     e(  2 -  2) =     -1.01421  eV     1   --> A''            
     e(  3 -  3) =      1.91307  eV     1   --> A'             
     e(  4 -  4) =      3.76849  eV     1   --> A''            
     e(  5 -  5) =      7.45213  eV     1   --> A''            
     e(  6 -  6) =     10.35149  eV     1   --> A'             
     e(  7 -  7) =     13.60007  eV     1   --> A'             
     e(  8 -  8) =     14.26465  eV     1   --> A''            

 **************************************************************************

 **************************************************************************

                    xk=(  -0.76250,   0.73750,   0.00000  )

     Band symmetry, C_s (m)     point group:

     e(  1 -  1) =     -2.01532  eV     1   --> A'             
     e(  2 -  2) =     -1.01349  eV     1   --> A''            
     e(  3 -  3) =      1.91161  eV     1   --> A'             
     e(  4 -  4) =      3.77993  eV     1   --> A''            
     e(  5 -  5) =      7.43514  eV     1   --> A''            
     e(  6 -  6) =     10.35028  eV     1   --> A'             
     e(  7 -  7) =     13.64592  eV     1   --> A'             
     e(  8 -  8) =     14.28026  eV     1   --> A'             

 **************************************************************************

 **************************************************************************

                    xk=(  -0.75625,   0.74375,   0.00000  )

     Band symmetry, C_s (m)     point group:

     e(  1 -  1) =     -2.01641  eV     1   --> A'             
     e(  2 -  2) =     -1.01305  eV     1   --> A''            
     e(  3 -  3) =      1.91074  eV     1   --> A'             
     e(  4 -  4) =      3.78686  eV     1   --> A''            
     e(  5 -  5) =      7.42488  eV     1   --> A''            
     e(  6 -  6) =     10.34955  eV     1   --> A'             
     e(  7 -  7) =     13.67695  eV     1   --> A'             
     e(  8 -  8) =     14.24940  eV     1   --> A'             

 **************************************************************************

 **************************************************************************

                    xk=(  -0.75000,   0.75000,   0.00000  )

     point group C_2v (mm2) 
     there are  4 classes
     the character table:

       E     C2    s_v   s_v' 
A_1    1.00  1.00  1.00  1.00
A_2    1.00  1.00 -1.00 -1.00
B_1    1.00 -1.00  1.00 -1.00
B_2    1.00 -1.00 -1.00  1.00

     the symmetry operations in each class and the name of the first element:

     E        1
                                                                 
     C2       2
                                                                 
     s_v      4
                                                                 
     s_v'     3
                                                                 

     Band symmetry, C_2v (mm2)  point group:

     e(  1 -  1) =     -2.01677  eV     1   --> A_1  D_1  S_1  
     e(  2 -  2) =     -1.01291  eV     1   --> B_1  D_3  S_3  
     e(  3 -  3) =      1.91045  eV     1   --> A_1  D_1  S_1  
     e(  4 -  4) =      3.78918  eV     1   --> A_2  D_2  S_2  
     e(  5 -  5) =      7.42145  eV     1   --> B_1  D_3  S_3  
     e(  6 -  6) =     10.34931  eV     1   --> A_1  D_1  S_1  
     e(  7 -  7) =     13.68807  eV     1   --> B_2  D_4  S_4  
     e(  8 -  8) =     14.23834  eV     1   --> A_1  D_1  S_1  

 **************************************************************************

 **************************************************************************

                    xk=(  -0.73125,   0.73125,   0.00000  )

     Band symmetry, C_2v (mm2)  point group:

     e(  1 -  1) =     -2.10574  eV     1   --> A_1  D_1  S_1  
     e(  2 -  2) =     -0.92138  eV     1   --> B_1  D_3  S_3  
     e(  3 -  3) =      1.85399  eV     1   --> A_1  D_1  S_1  
     e(  4 -  4) =      3.85336  eV     1   --> A_2  D_2  S_2  
     e(  5 -  5) =      7.49582  eV     1   --> B_1  D_3  S_3  
     e(  6 -  6) =     10.72939  eV     1   --> A_1  D_1  S_1  
     e(  7 -  7) =     13.45767  eV     1   --> B_2  D_4  S_4  
     e(  8 -  8) =     14.00326  eV     1   --> A_1  D_1  S_1  

 **************************************************************************

 **************************************************************************

                    xk=(  -0.71250,   0.71250,   0.00000  )

     Band symmetry, C_2v (mm2)  point group:

     e(  1 -  1) =     -2.20467  eV     1   --> A_1  D_1  S_1  
     e(  2 -  2) =     -0.82332  eV     1   --> B_1  D_3  S_3  
     e(  3 -  3) =      1.81609  eV     1   --> A_1  D_1  S_1  
     e(  4 -  4) =      3.92142  eV     1   --> A_2  D_2  S_2  
     e(  5 -  5) =      7.57468  eV     1   --> B_1  D_3  S_3  
     e(  6 -  6) =     11.11319  eV     1   --> A_1  D_1  S_1  
     e(  7 -  7) =     13.23113  eV     1   --> B_2  D_4  S_4  
     e(  8 -  8) =     13.77716  eV     1   --> A_1  D_1  S_1  

 **************************************************************************

 **************************************************************************

                    xk=(  -0.69375,   0.69375,   0.00000  )

     Band symmetry, C_2v (mm2)  point group:

     e(  1 -  1) =     -2.31286  eV     1   --> A_1  D_1  S_1  
     e(  2 -  2) =     -0.71878  eV     1   --> B_1  D_3  S_3  
     e(  3 -  3) =      1.79655  eV     1   --> A_1  D_1  S_1  
     e(  4 -  4) =      3.99317  eV     1   --> A_2  D_2  S_2  
     e(  5 -  5) =      7.65781  eV     1   --> B_1  D_3  S_3  
     e(  6 -  6) =     11.49626  eV     1   --> A_1  D_1  S_1  
     e(  7 -  7) =     13.00879  eV     1   --> B_2  D_4  S_4  
     e(  8 -  8) =     13.56378  eV     1   --> A_1  D_1  S_1  

 **************************************************************************

 **************************************************************************

                    xk=(  -0.67500,   0.67500,   0.00000  )

     Band symmetry, C_2v (mm2)  point group:

     e(  1 -  1) =     -2.42936  eV     1   --> A_1  D_1  S_1  
     e(  2 -  2) =     -0.60776  eV     1   --> B_1  D_3  S_3  
     e(  3 -  3) =      1.79481  eV     1   --> A_1  D_1  S_1  
     e(  4 -  4) =      4.06841  eV     1   --> A_2  D_2  S_2  
     e(  5 -  5) =      7.74492  eV     1   --> B_1  D_3  S_3  
     e(  6 -  6) =     11.86870  eV     1   --> A_1  D_1  S_1  
     e(  7 -  7) =     12.79094  eV     1   --> B_2  D_4  S_4  
     e(  8 -  8) =     13.37234  eV     1   --> A_1  D_1  S_1  

 **************************************************************************

 **************************************************************************

                    xk=(  -0.65625,   0.65625,   0.00000  )

     Band symmetry, C_2v (mm2)  point group:

     e(  1 -  1) =     -2.55303  eV     1   --> A_1  D_1  S_1  
     e(  2 -  2) =     -0.49030  eV     1   --> B_1  D_3  S_3  
     e(  3 -  3) =      1.81005  eV     1   --> A_1  D_1  S_1  
     e(  4 -  4) =      4.14692  eV     1   --> A_2  D_2  S_2  
     e(  5 -  5) =      7.83572  eV     1   --> B_1  D_3  S_3  
     e(  6 -  6) =     12.20161  eV     1   --> A_1  D_1  S_1  
     e(  7 -  7) =     12.57783  eV     1   --> B_2  D_4  S_4  
     e(  8 -  8) =     13.23090  eV     1   --> A_1  D_1  S_1  

 **************************************************************************

 **************************************************************************

                    xk=(  -0.63750,   0.63750,   0.00000  )

     Band symmetry, C_2v (mm2)  point group:

     e(  1 -  1) =     -2.68264  eV     1   --> A_1  D_1  S_1  
     e(  2 -  2) =     -0.36642  eV     1   --> B_1  D_3  S_3  
     e(  3 -  3) =      1.84128  eV     1   --> A_1  D_1  S_1  
     e(  4 -  4) =      4.22844  eV     1   --> A_2  D_2  S_2  
     e(  5 -  5) =      7.92982  eV     1   --> B_1  D_3  S_3  
     e(  6 -  6) =     12.36965  eV     1   --> B_2  D_4  S_4  
     e(  7 -  7) =     12.40791  eV     1   --> A_1  D_1  S_1  
     e(  8 -  8) =     13.22566  eV     1   --> A_1  D_1  S_1  

 **************************************************************************

 **************************************************************************

                    xk=(  -0.61875,   0.61875,   0.00000  )

     Band symmetry, C_2v (mm2)  point group:

[...]

 **************************************************************************

                    xk=(  -0.12500,   0.12500,   0.12500  )

     Band symmetry, C_3v (3m)   point group:

     e(  1 -  1) =     -5.54559  eV     1   --> A_1  L_1       
     e(  2 -  2) =      4.61805  eV     1   --> A_1  L_1       
     e(  3 -  4) =      5.92873  eV     2   --> E    L_3       
     e(  5 -  5) =      8.72006  eV     1   --> A_1  L_1       
     e(  6 -  7) =      9.20385  eV     2   --> E    L_3       
     e(  8 -  8) =     10.93340  eV     1   --> A_1  L_1       

 **************************************************************************

 **************************************************************************

                    xk=(  -0.13750,   0.13750,   0.13750  )

     Band symmetry, C_3v (3m)   point group:

     e(  1 -  1) =     -5.50300  eV     1   --> A_1  L_1       
     e(  2 -  2) =      4.38514  eV     1   --> A_1  L_1       
     e(  3 -  4) =      5.88096  eV     2   --> E    L_3       
     e(  5 -  5) =      8.67783  eV     1   --> A_1  L_1       
     e(  6 -  7) =      9.27210  eV     2   --> E    L_3       
     e(  8 -  8) =     11.15323  eV     1   --> A_1  L_1       

 **************************************************************************

 **************************************************************************

                    xk=(  -0.15000,   0.15000,   0.15000  )

     Band symmetry, C_3v (3m)   point group:

     e(  1 -  1) =     -5.45650  eV     1   --> A_1  L_1       
     e(  2 -  2) =      4.15009  eV     1   --> A_1  L_1       
     e(  3 -  4) =      5.83233  eV     2   --> E    L_3       
     e(  5 -  5) =      8.63276  eV     1   --> A_1  L_1       
     e(  6 -  7) =      9.33989  eV     2   --> E    L_3       
     e(  8 -  8) =     11.37610  eV     1   --> A_1  L_1       

 **************************************************************************

 **************************************************************************

                    xk=(  -0.16250,   0.16250,   0.16250  )

     Band symmetry, C_3v (3m)   point group:

     e(  1 -  1) =     -5.40611  eV     1   --> A_1  L_1       
     e(  2 -  2) =      3.91397  eV     1   --> A_1  L_1       
     e(  3 -  4) =      5.78331  eV     2   --> E    L_3       
     e(  5 -  5) =      8.58570  eV     1   --> A_1  L_1       
     e(  6 -  7) =      9.40587  eV     2   --> E    L_3       
     e(  8 -  8) =     11.60066  eV     1   --> A_1  L_1       

 **************************************************************************

 **************************************************************************

                    xk=(  -0.17500,   0.17500,   0.17500  )

     Band symmetry, C_3v (3m)   point group:

     e(  1 -  1) =     -5.35188  eV     1   --> A_1  L_1       
     e(  2 -  2) =      3.67762  eV     1   --> A_1  L_1       
     e(  3 -  4) =      5.73429  eV     2   --> E    L_3       
     e(  5 -  5) =      8.53737  eV     1   --> A_1  L_1       
     e(  6 -  7) =      9.46874  eV     2   --> E    L_3       
     e(  8 -  8) =     11.82586  eV     1   --> A_1  L_1       

 **************************************************************************

 **************************************************************************

                    xk=(  -0.18750,   0.18750,   0.18750  )

     Band symmetry, C_3v (3m)   point group:

     e(  1 -  1) =     -5.29388  eV     1   --> A_1  L_1       
     e(  2 -  2) =      3.44175  eV     1   --> A_1  L_1       
     e(  3 -  4) =      5.68564  eV     2   --> E    L_3       
     e(  5 -  5) =      8.48835  eV     1   --> A_1  L_1       
     e(  6 -  7) =      9.52724  eV     2   --> E    L_3       
     e(  8 -  8) =     12.05080  eV     1   --> A_1  L_1       

 **************************************************************************

 **************************************************************************

                    xk=(  -0.20000,   0.20000,   0.20000  )

     Band symmetry, C_3v (3m)   point group:

     e(  1 -  1) =     -5.23215  eV     1   --> A_1  L_1       
     e(  2 -  2) =      3.20694  eV     1   --> A_1  L_1       
     e(  3 -  4) =      5.63766  eV     2   --> E    L_3       
     e(  5 -  5) =      8.43915  eV     1   --> A_1  L_1       
     e(  6 -  7) =      9.58027  eV     2   --> E    L_3       
     e(  8 -  8) =     12.27472  eV     1   --> A_1  L_1       

 **************************************************************************

 **************************************************************************

                    xk=(  -0.21250,   0.21250,   0.21250  )

     Band symmetry, C_3v (3m)   point group:

     e(  1 -  1) =     -5.16678  eV     1   --> A_1  L_1       
     e(  2 -  2) =      2.97371  eV     1   --> A_1  L_1       
     e(  3 -  4) =      5.59060  eV     2   --> E    L_3       
     e(  5 -  5) =      8.39019  eV     1   --> A_1  L_1       
     e(  6 -  7) =      9.62689  eV     2   --> E    L_3       
     e(  8 -  8) =     12.49682  eV     1   --> A_1  L_1       

 **************************************************************************

 **************************************************************************

                    xk=(  -0.22500,   0.22500,   0.22500  )

     Band symmetry, C_3v (3m)   point group:

     e(  1 -  1) =     -5.09786  eV     1   --> A_1  L_1       
     e(  2 -  2) =      2.74250  eV     1   --> A_1  L_1       
     e(  3 -  4) =      5.54469  eV     2   --> E    L_3       
     e(  5 -  5) =      8.34182  eV     1   --> A_1  L_1       
     e(  6 -  7) =      9.66641  eV     2   --> E    L_3       
     e(  8 -  8) =     12.71622  eV     1   --> A_1  L_1       

 **************************************************************************

 **************************************************************************

                    xk=(  -0.23750,   0.23750,   0.23750  )

     Band symmetry, C_3v (3m)   point group:

     e(  1 -  1) =     -5.02547  eV     1   --> A_1  L_1       
     e(  2 -  2) =      2.51372  eV     1   --> A_1  L_1       
     e(  3 -  4) =      5.50011  eV     2   --> E    L_3       
     e(  5 -  5) =      8.29436  eV     1   --> A_1  L_1       
     e(  6 -  7) =      9.69841  eV     2   --> E    L_3       
     e(  8 -  8) =     12.93175  eV     1   --> A_1  L_1       

 **************************************************************************

 **************************************************************************

                    xk=(  -0.25000,   0.25000,   0.25000  )

     Band symmetry, C_3v (3m)   point group:

     e(  1 -  1) =     -4.94973  eV     1   --> A_1  L_1       
     e(  2 -  2) =      2.28773  eV     1   --> A_1  L_1       
     e(  3 -  4) =      5.45703  eV     2   --> E    L_3       
     e(  5 -  5) =      8.24805  eV     1   --> A_1  L_1       
     e(  6 -  7) =      9.72276  eV     2   --> E    L_3       
     e(  8 -  8) =     13.14180  eV     1   --> A_1  L_1       

 **************************************************************************

 **************************************************************************

                    xk=(  -0.26250,   0.26250,   0.26250  )

     Band symmetry, C_3v (3m)   point group:

     e(  1 -  1) =     -4.87078  eV     1   --> A_1  L_1       
     e(  2 -  2) =      2.06490  eV     1   --> A_1  L_1       
     e(  3 -  4) =      5.41557  eV     2   --> E    L_3       
     e(  5 -  5) =      8.20314  eV     1   --> A_1  L_1       
     e(  6 -  7) =      9.73963  eV     2   --> E    L_3       
     e(  8 -  8) =     13.34399  eV     1   --> A_1  L_1       

 **************************************************************************

 **************************************************************************

                    xk=(  -0.27500,   0.27500,   0.27500  )

     Band symmetry, C_3v (3m)   point group:

     e(  1 -  1) =     -4.78878  eV     1   --> A_1  L_1       
     e(  2 -  2) =      1.84558  eV     1   --> A_1  L_1       
     e(  3 -  4) =      5.37586  eV     2   --> E    L_3       
     e(  5 -  5) =      8.15979  eV     1   --> A_1  L_1       
     e(  6 -  7) =      9.74944  eV     2   --> E    L_3       
     e(  8 -  8) =     13.53472  eV     1   --> A_1  L_1       

 **************************************************************************

 **************************************************************************

                    xk=(  -0.28750,   0.28750,   0.28750  )

     Band symmetry, C_3v (3m)   point group:

     e(  1 -  1) =     -4.70391  eV     1   --> A_1  L_1       
     e(  2 -  2) =      1.63012  eV     1   --> A_1  L_1       
     e(  3 -  4) =      5.33798  eV     2   --> E    L_3       
     e(  5 -  5) =      8.11819  eV     1   --> A_1  L_1       
     e(  6 -  7) =      9.75284  eV     2   --> E    L_3       
     e(  8 -  8) =     13.69858  eV     1   -->   ?

 **************************************************************************

 **************************************************************************

                    xk=(  -0.30000,   0.30000,   0.30000  )

     Band symmetry, C_3v (3m)   point group:

     e(  1 -  1) =     -4.61639  eV     1   --> A_1  L_1       
     e(  2 -  2) =      1.41889  eV     1   --> A_1  L_1       
     e(  3 -  4) =      5.30202  eV     2   --> E    L_3       
     e(  5 -  5) =      8.07846  eV     1   --> A_1  L_1       
     e(  6 -  7) =      9.75061  eV     2   --> E    L_3       
     e(  8 -  8) =     13.82060  eV     1   -->   ?

 **************************************************************************

 **************************************************************************

                    xk=(  -0.31250,   0.31250,   0.31250  )

     Band symmetry, C_3v (3m)   point group:

     e(  1 -  1) =     -4.52650  eV     1   --> A_1  L_1       
     e(  2 -  2) =      1.21227  eV     1   --> A_1  L_1       
     e(  3 -  4) =      5.26804  eV     2   --> E    L_3       
     e(  5 -  5) =      8.04073  eV     1   --> A_1  L_1       
     e(  6 -  7) =      9.74363  eV     2   --> E    L_3       
     e(  8 -  8) =     13.95657  eV     1   -->   ?

 **************************************************************************

 **************************************************************************

                    xk=(  -0.32500,   0.32500,   0.32500  )

     Band symmetry, C_3v (3m)   point group:

     e(  1 -  1) =     -4.43455  eV     1   --> A_1  L_1       
     e(  2 -  2) =      1.01071  eV     1   --> A_1  L_1       
     e(  3 -  4) =      5.23610  eV     2   --> E    L_3       
     e(  5 -  5) =      8.00509  eV     1   --> A_1  L_1       
     e(  6 -  7) =      9.73279  eV     2   --> E    L_3       
     e(  8 -  8) =     14.05775  eV     1   --> A_1  L_1       

 **************************************************************************

 **************************************************************************

                    xk=(  -0.33750,   0.33750,   0.33750  )

     Band symmetry, C_3v (3m)   point group:

     e(  1 -  1) =     -4.34094  eV     1   --> A_1  L_1       
     e(  2 -  2) =      0.81468  eV     1   --> A_1  L_1       
     e(  3 -  4) =      5.20624  eV     2   --> E    L_3       
     e(  5 -  5) =      7.97164  eV     1   --> A_1  L_1       
     e(  6 -  7) =      9.71899  eV     2   --> E    L_3       
     e(  8 -  8) =     14.10363  eV     1   --> A_1  L_1       

 **************************************************************************

 **************************************************************************

                    xk=(  -0.35000,   0.35000,   0.35000  )

     Band symmetry, C_3v (3m)   point group:

     e(  1 -  1) =     -4.24613  eV     1   --> A_1  L_1       
     e(  2 -  2) =      0.62476  eV     1   --> A_1  L_1       
     e(  3 -  4) =      5.17850  eV     2   --> E    L_3       
     e(  5 -  5) =      7.94044  eV     1   --> A_1  L_1       
     e(  6 -  7) =      9.70307  eV     2   --> E    L_3       
     e(  8 -  8) =     14.12149  eV     1   --> A_1  L_1       

 **************************************************************************

 **************************************************************************

                    xk=(  -0.36250,   0.36250,   0.36250  )

     Band symmetry, C_3v (3m)   point group:

     e(  1 -  1) =     -4.15071  eV     1   --> A_1  L_1       
     e(  2 -  2) =      0.44159  eV     1   --> A_1  L_1       
     e(  3 -  4) =      5.15292  eV     2   --> E    L_3       
     e(  5 -  5) =      7.91157  eV     1   --> A_1  L_1       
     e(  6 -  7) =      9.68582  eV     2   --> E    L_3       
     e(  8 -  8) =     14.12020  eV     1   --> A_1  L_1       

 **************************************************************************

 **************************************************************************

                    xk=(  -0.37500,   0.37500,   0.37500  )

     Band symmetry, C_3v (3m)   point group:

     e(  1 -  1) =     -4.05539  eV     1   --> A_1  L_1       
     e(  2 -  2) =      0.26595  eV     1   --> A_1  L_1       
     e(  3 -  4) =      5.12950  eV     2   --> E    L_3       
     e(  5 -  5) =      7.88506  eV     1   --> A_1  L_1       
     e(  6 -  7) =      9.66794  eV     2   --> E    L_3       
     e(  8 -  8) =     14.10721  eV     1   --> A_1  L_1       

 **************************************************************************

 **************************************************************************

                    xk=(  -0.38750,   0.38750,   0.38750  )

     Band symmetry, C_3v (3m)   point group:

     e(  1 -  1) =     -3.96104  eV     1   --> A_1  L_1       
     e(  2 -  2) =      0.09878  eV     1   --> A_1  L_1       
     e(  3 -  4) =      5.10828  eV     2   --> E    L_3       
     e(  5 -  5) =      7.86097  eV     1   --> A_1  L_1       
     e(  6 -  7) =      9.65006  eV     2   --> E    L_3       
     e(  8 -  8) =     14.08781  eV     1   --> A_1  L_1       

 **************************************************************************

 **************************************************************************

                    xk=(  -0.40000,   0.40000,   0.40000  )

     Band symmetry, C_3v (3m)   point group:

     e(  1 -  1) =     -3.86876  eV     1   --> A_1  L_1       
     e(  2 -  2) =     -0.05879  eV     1   --> A_1  L_1       
     e(  3 -  4) =      5.08926  eV     2   --> E    L_3       
     e(  5 -  5) =      7.83933  eV     1   --> A_1  L_1       
     e(  6 -  7) =      9.63273  eV     2   --> E    L_3       
     e(  8 -  8) =     14.06555  eV     1   --> A_1  L_1       

 **************************************************************************

 **************************************************************************

                    xk=(  -0.41250,   0.41250,   0.41250  )

     Band symmetry, C_3v (3m)   point group:

     e(  1 -  1) =     -3.77987  eV     1   --> A_1  L_1       
     e(  2 -  2) =     -0.20538  eV     1   --> A_1  L_1       
     e(  3 -  4) =      5.07246  eV     2   --> E    L_3       
     e(  5 -  5) =      7.82018  eV     1   --> A_1  L_1       
     e(  6 -  7) =      9.61641  eV     2   --> E    L_3       
     e(  8 -  8) =     14.04277  eV     1   --> A_1  L_1       

 **************************************************************************

 **************************************************************************

                    xk=(  -0.42500,   0.42500,   0.42500  )

     Band symmetry, C_3v (3m)   point group:

     e(  1 -  1) =     -3.69598  eV     1   --> A_1  L_1       
     e(  2 -  2) =     -0.33936  eV     1   --> A_1  L_1       
     e(  3 -  4) =      5.05789  eV     2   --> E    L_3       
     e(  5 -  5) =      7.80354  eV     1   --> A_1  L_1       
     e(  6 -  7) =      9.60152  eV     2   --> E    L_3       
     e(  8 -  8) =     14.02102  eV     1   --> A_1  L_1       

 **************************************************************************

 **************************************************************************

                    xk=(  -0.43750,   0.43750,   0.43750  )

     Band symmetry, C_3v (3m)   point group:

     e(  1 -  1) =     -3.61899  eV     1   --> A_1  L_1       
     e(  2 -  2) =     -0.45878  eV     1   --> A_1  L_1       
     e(  3 -  4) =      5.04555  eV     2   --> E    L_3       
     e(  5 -  5) =      7.78942  eV     1   --> A_1  L_1       
     e(  6 -  7) =      9.58838  eV     2   --> E    L_3       
     e(  8 -  8) =     14.00136  eV     1   --> A_1  L_1       

 **************************************************************************

 **************************************************************************

                    xk=(  -0.45000,   0.45000,   0.45000  )

     Band symmetry, C_3v (3m)   point group:

     e(  1 -  1) =     -3.55111  eV     1   --> A_1  L_1       
     e(  2 -  2) =     -0.56141  eV     1   --> A_1  L_1       
     e(  3 -  4) =      5.03545  eV     2   --> E    L_3       
     e(  5 -  5) =      7.77785  eV     1   --> A_1  L_1       
     e(  6 -  7) =      9.57727  eV     2   --> E    L_3       
     e(  8 -  8) =     13.98453  eV     1   --> A_1  L_1       

 **************************************************************************

 **************************************************************************

                    xk=(  -0.46250,   0.46250,   0.46250  )

     Band symmetry, C_3v (3m)   point group:

     e(  1 -  1) =     -3.49471  eV     1   --> A_1  L_1       
     e(  2 -  2) =     -0.64485  eV     1   --> A_1  L_1       
     e(  3 -  4) =      5.02760  eV     2   --> E    L_3       
     e(  5 -  5) =      7.76883  eV     1   --> A_1  L_1       
     e(  6 -  7) =      9.56841  eV     2   --> E    L_3       
     e(  8 -  8) =     13.97100  eV     1   --> A_1  L_1       

 **************************************************************************

 **************************************************************************

                    xk=(  -0.47500,   0.47500,   0.47500  )

     Band symmetry, C_3v (3m)   point group:

     e(  1 -  1) =     -3.45222  eV     1   --> A_1  L_1       
     e(  2 -  2) =     -0.70667  eV     1   --> A_1  L_1       
     e(  3 -  4) =      5.02198  eV     2   --> E    L_3       
     e(  5 -  5) =      7.76239  eV     1   --> A_1  L_1       
     e(  6 -  7) =      9.56197  eV     2   --> E    L_3       
     e(  8 -  8) =     13.96113  eV     1   --> A_1  L_1       

 **************************************************************************

 **************************************************************************

                    xk=(  -0.48750,   0.48750,   0.48750  )

     Band symmetry, C_3v (3m)   point group:

     e(  1 -  1) =     -3.42573  eV     1   --> A_1  L_1       
     e(  2 -  2) =     -0.74476  eV     1   --> A_1  L_1       
     e(  3 -  4) =      5.01861  eV     2   --> E    L_3       
     e(  5 -  5) =      7.75852  eV     1   --> A_1  L_1       
     e(  6 -  7) =      9.55805  eV     2   --> E    L_3       
     e(  8 -  8) =     13.95512  eV     1   --> A_1  L_1       

 **************************************************************************

 **************************************************************************

                    xk=(  -0.50000,   0.50000,   0.50000  )

     zone border point and non-symmorphic group 
     symmetry decomposition not available

 **************************************************************************

     BANDS        :      6.65s CPU      7.44s WALL


   This run was terminated on:  14:12:52   1Nov2025            

=------------------------------------------------------------------------------=
   JOB DONE.
=------------------------------------------------------------------------------=
