
     Program PWSCF v.7.4.1 starts on  1Nov2025 at 14:12:29 

     This program is part of the open-source Quantum ESPRESSO suite
     for quantum simulation of materials; please cite
         "P. Giannozzi et al., J. Phys.:Condens. Matter 21 395502 (2009);
         "P. Giannozzi et al., J. Phys.:Condens. Matter 29 465901 (2017);
         "P. Giannozzi et al., J. Chem. Phys. 152 154105 (2020);
          URL http://www.quantum-espresso.org", 
     in publications or presentations arising from this work. More details at
     http://www.quantum-espresso.org/quote

     Parallel version (MPI), running on     2 processors

     MPI processes distributed on     1 nodes
     0 MiB available memory on the printing compute node when the environment starts

     Reading input from scf.in

     Current dimensions of program PWSCF are:
     Max number of different atomic species (ntypx) = 10
     Max number of k-points (npk) =  40000
     Max angular momentum in pseudopotentials (lmaxx) =  4

     R & G space division:  proc/nbgrp/npool/nimage =       2
     Subspace diagonalization in iterative solution of the eigenvalue problem:
     a serial algorithm will be used


     Parallelization info
     --------------------
     sticks:   dense  smooth     PW     G-vecs:    dense   smooth      PW
     Min         867     429    126                23914     8432    1369
     Max         868     430    127                23917     8433    1372
     Sum        1735     859    253                47831    16865    2741

     Using Slab Decomposition



     bravais-lattice index     =            2
     lattice parameter (alat)  =      10.2600  a.u.
     unit-cell volume          =     270.0114 (a.u.)^3
     number of atoms/cell      =            2
     number of atomic types    =            1
     number of electrons       =         8.00
     number of Kohn-Sham states=            8
     kinetic-energy cutoff     =      60.0000  Ry
     charge density cutoff     =     480.0000  Ry
     scf convergence threshold =      1.0E-08
     mixing beta               =       0.7000
     number of iterations used =            8  plain     mixing
     Exchange-correlation= PBE
                           (   1   4   3   4   0   0   0)

     celldm(1)=  10.260000  celldm(2)=   0.000000  celldm(3)=   0.000000
     celldm(4)=   0.000000  celldm(5)=   0.000000  celldm(6)=   0.000000

     crystal axes: (cart. coord. in units of alat)
               a(1) = (  -0.500000   0.000000   0.500000 )  
               a(2) = (   0.000000   0.500000   0.500000 )  
               a(3) = (  -0.500000   0.500000   0.000000 )  

     reciprocal axes: (cart. coord. in units 2 pi/alat)
               b(1) = ( -1.000000 -1.000000  1.000000 )  
               b(2) = (  1.000000  1.000000  1.000000 )  
               b(3) = ( -1.000000  1.000000 -1.000000 )  


     PseudoPot. # 1 for Si read from file:
     /Users/pollob/qe_macm4_build/cases/common/pp/Si.pbe-n-rrkjus_psl.1.0.0.UPF
     MD5 check sum: fa25574f73a70a4139f2adfbefec430c
     Pseudo is Ultrasoft + core correction, Zval =  4.0
     Generated using &quot;atomic&quot; code by A. Dal Corso  v.6.3
     Using radial grid of 1141 points,  6 beta functions with: 
                l(1) =   0
                l(2) =   0
                l(3) =   1
                l(4) =   1
                l(5) =   2
                l(6) =   2
     Q(r) pseudized with 0 coefficients 


     atomic species   valence    mass     pseudopotential
     Si                4.00    28.08500     Si( 1.00)

     48 Sym. Ops., with inversion, found (24 have fractional translation)



   Cartesian axes

     site n.     atom                  positions (alat units)
         1        Si     tau(   1) = (   0.0000000   0.0000000   0.0000000  )
         2        Si     tau(   2) = (  -0.2500000   0.2500000   0.2500000  )

     number of k points=    16  Methfessel-Paxton smearing, width (Ry)=  0.0200
                       cart. coord. in units 2pi/alat
        k(    1) = (   0.0000000   0.0000000   0.0000000), wk =   0.0092593
        k(    2) = (  -0.1666667   0.1666667  -0.1666667), wk =   0.0740741
        k(    3) = (  -0.3333333   0.3333333  -0.3333333), wk =   0.0740741
        k(    4) = (   0.5000000  -0.5000000   0.5000000), wk =   0.0370370
        k(    5) = (   0.0000000   0.3333333   0.0000000), wk =   0.0555556
        k(    6) = (  -0.1666667   0.5000000  -0.1666667), wk =   0.2222222
        k(    7) = (   0.6666667  -0.3333333   0.6666667), wk =   0.2222222
        k(    8) = (   0.5000000  -0.1666667   0.5000000), wk =   0.2222222
        k(    9) = (   0.3333333   0.0000000   0.3333333), wk =   0.1111111
        k(   10) = (   0.0000000   0.6666667   0.0000000), wk =   0.0555556
        k(   11) = (   0.8333333  -0.1666667   0.8333333), wk =   0.2222222
        k(   12) = (   0.6666667  -0.0000000   0.6666667), wk =   0.1111111
        k(   13) = (   0.0000000  -1.0000000   0.0000000), wk =   0.0277778
        k(   14) = (   0.6666667  -0.3333333   1.0000000), wk =   0.2222222
        k(   15) = (   0.5000000  -0.1666667   0.8333333), wk =   0.2222222
        k(   16) = (  -0.3333333  -1.0000000   0.0000000), wk =   0.1111111

     Dense  grid:    47831 G-vectors     FFT dimensions: (  60,  60,  60)

     Smooth grid:    16865 G-vectors     FFT dimensions: (  36,  36,  36)

     Estimated max dynamical RAM per process >      90.38 MB

     Estimated total dynamical RAM >     180.76 MB

     Initial potential from superposition of free atoms

     starting charge       7.9989, renormalised to       8.0000
     Starting wfcs are    8 randomized atomic wfcs

     total cpu time spent up to now is        0.2 secs

     Self-consistent Calculation

     iteration #  1     ecut=    60.00 Ry     beta= 0.70
     Davidson diagonalization with overlap
     ethr =  1.00E-02,  avg # of iterations =  3.6

     Threshold (ethr) on eigenvalues was too large:
     Diagonalizing with lowered threshold

     Davidson diagonalization with overlap
     ethr =  6.57E-04,  avg # of iterations =  2.4

     total cpu time spent up to now is        0.6 secs

     total energy              =     -22.83553473 Ry
     estimated scf accuracy    <       0.05660744 Ry

     iteration #  2     ecut=    60.00 Ry     beta= 0.70
     Davidson diagonalization with overlap
     ethr =  7.08E-04,  avg # of iterations =  1.1

     total cpu time spent up to now is        0.8 secs

     WARNING: integrated charge=     7.99897207, expected=     8.00000000

     total energy              =     -22.83847108 Ry
     estimated scf accuracy    <       0.00226657 Ry

     iteration #  3     ecut=    60.00 Ry     beta= 0.70
     Davidson diagonalization with overlap
     ethr =  2.83E-05,  avg # of iterations =  4.1

     total cpu time spent up to now is        1.0 secs

     WARNING: integrated charge=     7.99843787, expected=     8.00000000

     total energy              =     -22.83877771 Ry
     estimated scf accuracy    <       0.00004791 Ry

     iteration #  4     ecut=    60.00 Ry     beta= 0.70
     Davidson diagonalization with overlap
     ethr =  5.99E-07,  avg # of iterations =  3.4

     total cpu time spent up to now is        1.2 secs

     WARNING: integrated charge=     7.99851766, expected=     8.00000000

     total energy              =     -22.83872729 Ry
     estimated scf accuracy    <       0.00000015 Ry

     iteration #  5     ecut=    60.00 Ry     beta= 0.70
     Davidson diagonalization with overlap
     ethr =  1.82E-09,  avg # of iterations =  3.8

     total cpu time spent up to now is        1.5 secs

     End of self-consistent calculation

          k = 0.0000 0.0000 0.0000 (  2085 PWs)   bands (ev):

    -5.7500   6.2184   6.2184   6.2184   8.7784   8.7784   8.7784   9.5875

          k =-0.1667 0.1667-0.1667 (  2112 PWs)   bands (ev):

    -5.3886   3.8350   5.7668   5.7668   8.5695   9.4271   9.4271  11.6754

          k =-0.3333 0.3333-0.3333 (  2102 PWs)   bands (ev):

    -4.3725   0.8792   5.2158   5.2158   7.9823   9.7238   9.7238  14.0923

          k = 0.5000-0.5000 0.5000 (  2120 PWs)   bands (ev):

    -3.4169  -0.7578   5.0173   5.0173   7.7570   9.5566   9.5567  13.9527

          k = 0.0000 0.3333 0.0000 (  2105 PWs)   bands (ev):

    -5.2657   4.1796   5.0227   5.0227   7.9210  10.5213  10.5639  10.5639

          k =-0.1667 0.5000-0.1667 (  2106 PWs)   bands (ev):

    -4.4499   1.7787   4.2226   4.4689   8.1824  10.2856  10.7447  11.2947

          k = 0.6667-0.3333 0.6667 (  2120 PWs)   bands (ev):

    -3.2576  -0.3928   3.4379   4.4387   8.2597  10.3364  10.8405  12.6430

          k = 0.5000-0.1667 0.5000 (  2122 PWs)   bands (ev):

    -3.6429   0.2070   3.1668   4.9185   8.6700  10.3437  10.4473  13.5162

          k = 0.3333 0.0000 0.3333 (  2109 PWs)   bands (ev):

    -4.8001   2.4984   3.8018   5.6522   9.2583   9.7747  10.0690  11.8869

          k = 0.0000 0.6667 0.0000 (  2108 PWs)   bands (ev):

    -3.8448   1.2047   3.7965   3.7965   6.9437   8.2099  13.4850  13.4850

          k = 0.8333-0.1667 0.8333 (  2126 PWs)   bands (ev):

    -2.6802  -0.3511   2.5810   3.6599   7.2803   8.9362  13.6719  13.7035

          k = 0.6667-0.0000 0.6667 (  2121 PWs)   bands (ev):

    -2.4837  -0.5565   1.7994   4.1028   7.7846  12.0245  12.6955  13.3000

          k = 0.0000-1.0000 0.0000 (  2100 PWs)   bands (ev):

    -1.6033  -1.6033   3.3614   3.3614   6.9268   6.9268  16.3260  16.3260

          k = 0.6667-0.3333 1.0000 (  2113 PWs)   bands (ev):

    -3.4594   0.5710   2.6436   3.9196   9.0720   9.9349  10.4546  13.2880

          k = 0.5000-0.1667 0.8333 (  2122 PWs)   bands (ev):

    -2.4736  -0.6297   2.2034   3.4522   9.5752   9.7772  12.3234  12.7403

          k =-0.3333-1.0000 0.0000 (  2138 PWs)   bands (ev):

    -1.4832  -1.4832   2.5681   2.5681   8.9679   8.9679  12.9855  12.9855

     the Fermi energy is     6.4564 ev

     WARNING: integrated charge=     7.99854719, expected=     8.00000000

!    total energy              =     -22.83871961 Ry
     estimated scf accuracy    <          7.6E-09 Ry
     smearing contrib. (-TS)   =       0.00010298 Ry
     internal energy E=F+TS    =     -22.83882258 Ry

     The total energy is F=E-TS. E is the sum of the following terms:
     one-electron contribution =       5.16867390 Ry
     hartree contribution      =       1.10449152 Ry
     xc contribution           =     -12.31105844 Ry
     ewald contribution        =     -16.80092957 Ry

     convergence has been achieved in   5 iterations

     Writing all to output data dir ./tmp_cutoff_60/cutoff_60.save/ :
     XML data file, charge density, pseudopotentials, collected wavefunctions

     init_run     :      0.17s CPU      0.18s WALL (       1 calls)
     electrons    :      1.09s CPU      1.24s WALL (       1 calls)

     Called by init_run:
     wfcinit      :      0.04s CPU      0.04s WALL (       1 calls)
     potinit      :      0.02s CPU      0.02s WALL (       1 calls)
     hinit0       :      0.08s CPU      0.08s WALL (       1 calls)

     Called by electrons:
     c_bands      :      0.65s CPU      0.74s WALL (       6 calls)
     sum_band     :      0.23s CPU      0.27s WALL (       6 calls)
     v_of_rho     :      0.09s CPU      0.10s WALL (       6 calls)
     newd         :      0.13s CPU      0.16s WALL (       6 calls)
     mix_rho      :      0.01s CPU      0.01s WALL (       6 calls)

     Called by c_bands:
     init_us_2    :      0.02s CPU      0.02s WALL (     208 calls)
     cegterg      :      0.61s CPU      0.68s WALL (      96 calls)

     Called by *egterg:
     cdiaghg      :      0.01s CPU      0.01s WALL (     374 calls)
     h_psi        :      0.53s CPU      0.59s WALL (     406 calls)
     s_psi        :      0.02s CPU      0.03s WALL (     406 calls)
     g_psi        :      0.00s CPU      0.00s WALL (     294 calls)

     Called by h_psi:
     h_psi:calbec :      0.03s CPU      0.05s WALL (     406 calls)
     vloc_psi     :      0.47s CPU      0.50s WALL (     406 calls)
     add_vuspsi   :      0.03s CPU      0.03s WALL (     406 calls)

     General routines
     calbec       :      0.04s CPU      0.06s WALL (     502 calls)
     fft          :      0.05s CPU      0.05s WALL (      77 calls)
     ffts         :      0.00s CPU      0.00s WALL (      12 calls)
     fftw         :      0.43s CPU      0.44s WALL (    5196 calls)
     interpolate  :      0.01s CPU      0.01s WALL (       6 calls)

     Parallel routines

     PWSCF        :      1.30s CPU      1.47s WALL


   This run was terminated on:  14:12:30   1Nov2025            

=------------------------------------------------------------------------------=
   JOB DONE.
=------------------------------------------------------------------------------=
Note: The following floating-point exceptions are signalling: IEEE_INVALID_FLAG IEEE_DIVIDE_BY_ZERO IEEE_UNDERFLOW_FLAG
Note: The following floating-point exceptions are signalling: IEEE_UNDERFLOW_FLAG
