
     Program BANDS v.7.4.1 starts on  1Nov2025 at 14:13:23 

     This program is part of the open-source Quantum ESPRESSO suite
     for quantum simulation of materials; please cite
         "P. Giannozzi et al., J. Phys.:Condens. Matter 21 395502 (2009);
         "P. Giannozzi et al., J. Phys.:Condens. Matter 29 465901 (2017);
         "P. Giannozzi et al., J. Chem. Phys. 152 154105 (2020);
          URL http://www.quantum-espresso.org", 
     in publications or presentations arising from this work. More details at
     http://www.quantum-espresso.org/quote

     Parallel version (MPI), running on     2 processors

     MPI processes distributed on     1 nodes
     R & G space division:  proc/nbgrp/npool/nimage =       2
     0 MiB available memory on the printing compute node when the environment starts


     Reading xml data from directory:

     ./tmp_kmesh_10/kmesh_10.save/

     IMPORTANT: XC functional enforced from input :
     Exchange-correlation= PBE
                           (   1   4   3   4   0   0   0)
     Any further DFT definition will be discarded
     Please, verify this is what you really want


     Parallelization info
     --------------------
     sticks:   dense  smooth     PW     G-vecs:    dense   smooth      PW
     Min         429     216     69                 8432     2980     533
     Max         430     217     70                 8433     2981     534
     Sum         859     433    139                16865     5961    1067

     Using Slab Decomposition

     Reading collected, re-writing distributed wavefunctions
     high-symmetry point:  0.0000 0.0000 0.0000   x coordinate   0.0000
     high-symmetry point: -1.0000 0.0000 0.0000   x coordinate   1.0000
     high-symmetry point: -1.0000 0.5000 0.0000   x coordinate   1.5000
     high-symmetry point: -0.7500 0.7500 0.0000   x coordinate   1.8536
     high-symmetry point:  0.0000 0.0000 0.0000   x coordinate   2.9142
     high-symmetry point: -0.5000 0.5000 0.5000   x coordinate   3.7802

     Plottable bands (eV) written to file silicon.bands.dat.gnu
     Bands written to file silicon.bands.dat

 **************************************************************************

                    xk=(   0.00000,   0.00000,   0.00000  )

     point group O_h (m-3m) 
     there are 10 classes
     the character table:

       E     8C3   3C2   6C4   6C2'  i     8S6   3s_h  6S4   6s_d 
A_1g   1.00  1.00  1.00  1.00  1.00  1.00  1.00  1.00  1.00  1.00
A_2g   1.00  1.00  1.00 -1.00 -1.00  1.00  1.00  1.00 -1.00 -1.00
E_g    2.00 -1.00  2.00  0.00  0.00  2.00 -1.00  2.00  0.00  0.00
T_1g   3.00  0.00 -1.00  1.00 -1.00  3.00  0.00 -1.00  1.00 -1.00
T_2g   3.00  0.00 -1.00 -1.00  1.00  3.00  0.00 -1.00 -1.00  1.00
A_1u   1.00  1.00  1.00  1.00  1.00 -1.00 -1.00 -1.00 -1.00 -1.00
A_2u   1.00  1.00  1.00 -1.00 -1.00 -1.00 -1.00 -1.00  1.00  1.00
E_u    2.00 -1.00  2.00  0.00  0.00 -2.00  1.00 -2.00  0.00  0.00
T_1u   3.00  0.00 -1.00  1.00 -1.00 -3.00  0.00  1.00 -1.00  1.00
T_2u   3.00  0.00 -1.00 -1.00  1.00 -3.00  0.00  1.00  1.00 -1.00

     the symmetry operations in each class and the name of the first element:

     E        1
                                                                 
     8C3     17   19   20   18   24   21   22   23
                                                                 
     3C2      2    4    3
                                                                 
     6C4      7    8   15   16   12   11
                                                                 
     6C2'     5    6   14   13   10    9
                                                                 
     i       25
                                                                 
     8S6     41   43   44   42   48   45   46   47
                                                                 
     3s_h    26   28   27
                                                                 
     6S4     31   32   39   40   36   35
                                                                 
     6s_d    29   30   38   37   34   33
                                                                 

     Band symmetry, O_h (m-3m)  point group:

     e(  1 -  1) =     -5.75605  eV     1   --> A_1g G_1   G_1+
     e(  2 -  4) =      6.21129  eV     3   --> T_2g G_25' G_5+
     e(  5 -  7) =      8.77428  eV     3   --> T_1u G_15  G_4-
     e(  8 -  8) =      9.57938  eV     1   --> A_2u G_2'  G_2-

 **************************************************************************

 **************************************************************************

                    xk=(  -0.02500,   0.00000,   0.00000  )

     point group C_4v (4mm) 
     there are  5 classes
     the character table:

       E     2C4   C2    2s_v  2s_d 
A_1    1.00  1.00  1.00  1.00  1.00
A_2    1.00  1.00  1.00 -1.00 -1.00
B_1    1.00 -1.00  1.00  1.00 -1.00
B_2    1.00 -1.00  1.00 -1.00  1.00
E      2.00  0.00 -2.00  0.00  0.00

     the symmetry operations in each class and the name of the first element:

     E        1
                                                                 
     2C4      3    4
                                                                 
     C2       2
                                                                 
     2s_v     5    6
                                                                 
     2s_d     7    8
                                                                 

     Band symmetry, C_4v (4mm)  point group:

     e(  1 -  1) =     -5.75331  eV     1   --> A_1  G_1 D_1   
     e(  2 -  2) =      6.19236  eV     1   --> B_2  G_4 D_2'  
     e(  3 -  4) =      6.19926  eV     2   --> E    G_5 D_5   
     e(  5 -  5) =      8.76743  eV     1   --> A_1  G_1 D_1   
     e(  6 -  7) =      8.78963  eV     2   --> E    G_5 D_5   
     e(  8 -  8) =      9.59794  eV     1   --> B_2  G_4 D_2'  

 **************************************************************************

 **************************************************************************

                    xk=(  -0.05000,   0.00000,   0.00000  )

     Band symmetry, C_4v (4mm)  point group:

     e(  1 -  1) =     -5.74510  eV     1   --> A_1  G_1 D_1   
     e(  2 -  2) =      6.13687  eV     1   --> B_2  G_4 D_2'  
     e(  3 -  4) =      6.16419  eV     2   --> E    G_5 D_5   
     e(  5 -  5) =      8.74714  eV     1   --> A_1  G_1 D_1   
     e(  6 -  7) =      8.83482  eV     2   --> E    G_5 D_5   
     e(  8 -  8) =      9.65215  eV     1   --> B_2  G_4 D_2'  

 **************************************************************************

 **************************************************************************

                    xk=(  -0.07500,   0.00000,   0.00000  )

     Band symmetry, C_4v (4mm)  point group:

     e(  1 -  1) =     -5.73142  eV     1   --> A_1  G_1 D_1   
     e(  2 -  2) =      6.04828  eV     1   --> B_2  G_4 D_2'  
     e(  3 -  4) =      6.10839  eV     2   --> E    G_5 D_5   
     e(  5 -  5) =      8.71400  eV     1   --> A_1  G_1 D_1   
     e(  6 -  7) =      8.90747  eV     2   --> E    G_5 D_5   
     e(  8 -  8) =      9.73794  eV     1   --> B_2  G_4 D_2'  

 **************************************************************************

 **************************************************************************

                    xk=(  -0.10000,   0.00000,   0.00000  )

     Band symmetry, C_4v (4mm)  point group:

     e(  1 -  1) =     -5.71226  eV     1   --> A_1  G_1 D_1   
     e(  2 -  2) =      5.93132  eV     1   --> B_2  G_4 D_2'  
     e(  3 -  4) =      6.03513  eV     2   --> E    G_5 D_5   
     e(  5 -  5) =      8.66897  eV     1   --> A_1  G_1 D_1   
     e(  6 -  7) =      9.00429  eV     2   --> E    G_5 D_5   
     e(  8 -  8) =      9.84949  eV     1   --> B_2  G_4 D_2'  

 **************************************************************************

 **************************************************************************

                    xk=(  -0.12500,   0.00000,   0.00000  )

     Band symmetry, C_4v (4mm)  point group:

     e(  1 -  1) =     -5.68765  eV     1   --> A_1  G_1 D_1   
     e(  2 -  2) =      5.79099  eV     1   --> B_2  G_4 D_2'  
     e(  3 -  4) =      5.94793  eV     2   --> E    G_5 D_5   
     e(  5 -  5) =      8.61325  eV     1   --> A_1  G_1 D_1   
     e(  6 -  7) =      9.12174  eV     2   --> E    G_5 D_5   
     e(  8 -  8) =      9.97997  eV     1   --> B_2  G_4 D_2'  

 **************************************************************************

 **************************************************************************

                    xk=(  -0.15000,   0.00000,   0.00000  )

     Band symmetry, C_4v (4mm)  point group:

     e(  1 -  1) =     -5.65759  eV     1   --> A_1  G_1 D_1   
     e(  2 -  2) =      5.63196  eV     1   --> B_2  G_4 D_2'  
     e(  3 -  4) =      5.85010  eV     2   --> E    G_5 D_5   
     e(  5 -  5) =      8.54820  eV     1   --> A_1  G_1 D_1   
     e(  6 -  7) =      9.25646  eV     2   --> E    G_5 D_5   
     e(  8 -  8) =     10.12195  eV     1   --> B_2  G_4 D_2'  

 **************************************************************************

 **************************************************************************

                    xk=(  -0.17500,   0.00000,   0.00000  )

     Band symmetry, C_4v (4mm)  point group:

     e(  1 -  1) =     -5.62208  eV     1   --> A_1  G_1 D_1   
     e(  2 -  2) =      5.45816  eV     1   --> B_2  G_4 D_2'  
     e(  3 -  4) =      5.74454  eV     2   --> E    G_5 D_5   
     e(  5 -  5) =      8.47527  eV     1   --> A_1  G_1 D_1   
     e(  6 -  7) =      9.40551  eV     2   --> E    G_5 D_5   
     e(  8 -  8) =     10.26712  eV     1   --> B_2  G_4 D_2'  

 **************************************************************************

 **************************************************************************

                    xk=(  -0.20000,   0.00000,   0.00000  )

     Band symmetry, C_4v (4mm)  point group:

     e(  1 -  1) =     -5.58114  eV     1   --> A_1  G_1 D_1   
     e(  2 -  2) =      5.27285  eV     1   --> B_2  G_4 D_2'  
     e(  3 -  4) =      5.63364  eV     2   --> E    G_5 D_5   
     e(  5 -  5) =      8.39589  eV     1   --> A_1  G_1 D_1   
     e(  6 -  7) =      9.56644  eV     2   --> E    G_5 D_5   
     e(  8 -  8) =     10.40570  eV     1   --> B_2  G_4 D_2'  

 **************************************************************************

 **************************************************************************

                    xk=(  -0.22500,   0.00000,   0.00000  )

     Band symmetry, C_4v (4mm)  point group:

     e(  1 -  1) =     -5.53479  eV     1   --> A_1  G_1 D_1   
     e(  2 -  2) =      5.07849  eV     1   --> B_2  G_4 D_2'  
     e(  3 -  4) =      5.51926  eV     2   --> E    G_5 D_5   
     e(  5 -  5) =      8.31142  eV     1   --> A_1  G_1 D_1   
     e(  6 -  7) =      9.73725  eV     2   --> E    G_5 D_5   
     e(  8 -  8) =     10.52548  eV     1   --> B_2  G_4 D_2'  

 **************************************************************************

 **************************************************************************

                    xk=(  -0.25000,   0.00000,   0.00000  )

     Band symmetry, C_4v (4mm)  point group:

     e(  1 -  1) =     -5.48303  eV     1   --> A_1  G_1 D_1   
     e(  2 -  2) =      4.87716  eV     1   --> B_2  G_4 D_2'  
     e(  3 -  4) =      5.40311  eV     2   --> E    G_5 D_5   
     e(  5 -  5) =      8.22322  eV     1   --> A_1  G_1 D_1   
     e(  6 -  7) =      9.91638  eV     2   --> E    G_5 D_5   
     e(  8 -  8) =     10.61165  eV     1   --> B_2  G_4 D_2'  

 **************************************************************************

 **************************************************************************

                    xk=(  -0.27500,   0.00000,   0.00000  )

     Band symmetry, C_4v (4mm)  point group:

     e(  1 -  1) =     -5.42590  eV     1   --> A_1  G_1 D_1   
     e(  2 -  2) =      4.67027  eV     1   --> B_2  G_4 D_2'  
     e(  3 -  4) =      5.28630  eV     2   --> E    G_5 D_5   
     e(  5 -  5) =      8.13244  eV     1   --> A_1  G_1 D_1   
     e(  6 -  7) =     10.10247  eV     2   --> E    G_5 D_5   
     e(  8 -  8) =     10.64901  eV     1   --> B_2  G_4 D_2'  

 **************************************************************************

 **************************************************************************

                    xk=(  -0.30000,   0.00000,   0.00000  )

     Band symmetry, C_4v (4mm)  point group:

     e(  1 -  1) =     -5.36341  eV     1   --> A_1  G_1 D_1   
     e(  2 -  2) =      4.45911  eV     1   --> B_2  G_4 D_2'  
     e(  3 -  4) =      5.16985  eV     2   --> E    G_5 D_5   
     e(  5 -  5) =      8.04016  eV     1   --> A_1  G_1 D_1   
     e(  6 -  7) =     10.29460  eV     2   --> E    G_5 D_5   
     e(  8 -  8) =     10.62851  eV     1   --> B_2  G_4 D_2'  

 **************************************************************************

 **************************************************************************

                    xk=(  -0.32500,   0.00000,   0.00000  )

     Band symmetry, C_4v (4mm)  point group:

     e(  1 -  1) =     -5.29557  eV     1   --> A_1  G_1 D_1   
     e(  2 -  2) =      4.24453  eV     1   --> B_2  G_4 D_2'  
     e(  3 -  4) =      5.05443  eV     2   --> E    G_5 D_5   
     e(  5 -  5) =      7.94730  eV     1   --> A_1  G_1 D_1   
     e(  6 -  7) =     10.49200  eV     2   --> E    G_5 D_5   
     e(  8 -  8) =     10.55188  eV     1   --> B_2  G_4 D_2'  

 **************************************************************************

 **************************************************************************

                    xk=(  -0.35000,   0.00000,   0.00000  )

     Band symmetry, C_4v (4mm)  point group:

     e(  1 -  1) =     -5.22243  eV     1   --> A_1  G_1 D_1   
     e(  2 -  2) =      4.02728  eV     1   --> B_2  G_4 D_2'  
     e(  3 -  4) =      4.94084  eV     2   --> E    G_5 D_5   
     e(  5 -  5) =      7.85478  eV     1   --> A_1  G_1 D_1   
     e(  6 -  6) =     10.43018  eV     1   --> B_2  G_4 D_2'  
     e(  7 -  8) =     10.69377  eV     2   --> E    G_5 D_5   

 **************************************************************************

 **************************************************************************

                    xk=(  -0.37500,   0.00000,   0.00000  )

     Band symmetry, C_4v (4mm)  point group:

     e(  1 -  1) =     -5.14400  eV     1   --> A_1  G_1 D_1   
     e(  2 -  2) =      3.80790  eV     1   --> B_2  G_4 D_2'  
     e(  3 -  4) =      4.82949  eV     2   --> E    G_5 D_5   
     e(  5 -  5) =      7.76329  eV     1   --> A_1  G_1 D_1   
     e(  6 -  6) =     10.27704  eV     1   --> B_2  G_4 D_2'  
     e(  7 -  8) =     10.89938  eV     2   --> E    G_5 D_5   

 **************************************************************************

 **************************************************************************

                    xk=(  -0.40000,   0.00000,   0.00000  )

     Band symmetry, C_4v (4mm)  point group:

     e(  1 -  1) =     -5.06031  eV     1   --> A_1  G_1 D_1   
     e(  2 -  2) =      3.58686  eV     1   --> B_2  G_4 D_2'  
     e(  3 -  4) =      4.72080  eV     2   --> E    G_5 D_5   
     e(  5 -  5) =      7.67351  eV     1   --> A_1  G_1 D_1   
     e(  6 -  6) =     10.10405  eV     1   --> B_2  G_4 D_2'  
     e(  7 -  8) =     11.10840  eV     2   --> E    G_5 D_5   

 **************************************************************************

 **************************************************************************

                    xk=(  -0.42500,   0.00000,   0.00000  )

     Band symmetry, C_4v (4mm)  point group:

     e(  1 -  1) =     -4.97141  eV     1   --> A_1  G_1 D_1   
     e(  2 -  2) =      3.36451  eV     1   --> B_2  G_4 D_2'  
     e(  3 -  4) =      4.61511  eV     2   --> E    G_5 D_5   
     e(  5 -  5) =      7.58601  eV     1   --> A_1  G_1 D_1   
     e(  6 -  6) =      9.91967  eV     1   --> B_2  G_4 D_2'  
     e(  7 -  8) =     11.32046  eV     2   --> E    G_5 D_5   

 **************************************************************************

 **************************************************************************

                    xk=(  -0.45000,   0.00000,   0.00000  )

     Band symmetry, C_4v (4mm)  point group:

     e(  1 -  1) =     -4.87731  eV     1   --> A_1  G_1 D_1   
     e(  2 -  2) =      3.14118  eV     1   --> B_2  G_4 D_2'  
     e(  3 -  4) =      4.51272  eV     2   --> E    G_5 D_5   
     e(  5 -  5) =      7.50130  eV     1   --> A_1  G_1 D_1   
     e(  6 -  6) =      9.72971  eV     1   --> B_2  G_4 D_2'  
     e(  7 -  8) =     11.53523  eV     2   --> E    G_5 D_5   

 **************************************************************************

 **************************************************************************

                    xk=(  -0.47500,   0.00000,   0.00000  )

     Band symmetry, C_4v (4mm)  point group:

     e(  1 -  1) =     -4.77807  eV     1   --> A_1  G_1 D_1   
     e(  2 -  2) =      2.91713  eV     1   --> B_2  G_4 D_2'  
     e(  3 -  4) =      4.41386  eV     2   --> E    G_5 D_5   
     e(  5 -  5) =      7.41984  eV     1   --> A_1  G_1 D_1   
     e(  6 -  6) =      9.53815  eV     1   --> B_2  G_4 D_2'  
     e(  7 -  8) =     11.75242  eV     2   --> E    G_5 D_5   

 **************************************************************************

 **************************************************************************

                    xk=(  -0.50000,   0.00000,   0.00000  )

     Band symmetry, C_4v (4mm)  point group:

     e(  1 -  1) =     -4.67371  eV     1   --> A_1  G_1 D_1   
     e(  2 -  2) =      2.69260  eV     1   --> B_2  G_4 D_2'  
     e(  3 -  4) =      4.31874  eV     2   --> E    G_5 D_5   
     e(  5 -  5) =      7.34209  eV     1   --> A_1  G_1 D_1   
     e(  6 -  6) =      9.34771  eV     1   --> B_2  G_4 D_2'  
     e(  7 -  8) =     11.97202  eV     2   --> E    G_5 D_5   

 **************************************************************************

 **************************************************************************

                    xk=(  -0.52500,   0.00000,   0.00000  )

     Band symmetry, C_4v (4mm)  point group:

     e(  1 -  1) =     -4.56430  eV     1   --> A_1  G_1 D_1   
     e(  2 -  2) =      2.46778  eV     1   --> B_2  G_4 D_2'  
     e(  3 -  4) =      4.22752  eV     2   --> E    G_5 D_5   
     e(  5 -  5) =      7.26826  eV     1   --> A_1  G_1 D_1   
     e(  6 -  6) =      9.16033  eV     1   --> B_2  G_4 D_2'  
     e(  7 -  8) =     12.19342  eV     2   --> E    G_5 D_5   

 **************************************************************************

 **************************************************************************

                    xk=(  -0.55000,   0.00000,   0.00000  )

     Band symmetry, C_4v (4mm)  point group:

     e(  1 -  1) =     -4.44987  eV     1   --> A_1  G_1 D_1   
     e(  2 -  2) =      2.24288  eV     1   --> B_2  G_4 D_2'  
     e(  3 -  4) =      4.14034  eV     2   --> E    G_5 D_5   
     e(  5 -  5) =      7.19872  eV     1   --> A_1  G_1 D_1   
     e(  6 -  6) =      8.97736  eV     1   --> B_2  G_4 D_2'  
     e(  7 -  8) =     12.41663  eV     2   --> E    G_5 D_5   

 **************************************************************************

 **************************************************************************

                    xk=(  -0.57500,   0.00000,   0.00000  )

     Band symmetry, C_4v (4mm)  point group:

     e(  1 -  1) =     -4.33047  eV     1   --> A_1  G_1 D_1   
     e(  2 -  2) =      2.01806  eV     1   --> B_2  G_4 D_2'  
     e(  3 -  4) =      4.05730  eV     2   --> E    G_5 D_5   
     e(  5 -  5) =      7.13369  eV     1   --> A_1  G_1 D_1   
     e(  6 -  6) =      8.79975  eV     1   --> B_2  G_4 D_2'  
     e(  7 -  8) =     12.64158  eV     2   --> E    G_5 D_5   

 **************************************************************************

 **************************************************************************

                    xk=(  -0.60000,   0.00000,   0.00000  )

     Band symmetry, C_4v (4mm)  point group:

     e(  1 -  1) =     -4.20616  eV     1   --> A_1  G_1 D_1   
     e(  2 -  2) =      1.79357  eV     1   --> B_2  G_4 D_2'  
     e(  3 -  4) =      3.97862  eV     2   --> E    G_5 D_5   
     e(  5 -  5) =      7.07363  eV     1   --> A_1  G_1 D_1   
     e(  6 -  6) =      8.62843  eV     1   --> B_2  G_4 D_2'  
     e(  7 -  8) =     12.86813  eV     2   --> E    G_5 D_5   

 **************************************************************************

 **************************************************************************

                    xk=(  -0.62500,   0.00000,   0.00000  )

     Band symmetry, C_4v (4mm)  point group:

     e(  1 -  1) =     -4.07699  eV     1   --> A_1  G_1 D_1   
     e(  2 -  2) =      1.56955  eV     1   --> B_2  G_4 D_2'  
     e(  3 -  4) =      3.90433  eV     2   --> E    G_5 D_5   
     e(  5 -  5) =      7.01866  eV     1   --> A_1  G_1 D_1   
     e(  6 -  6) =      8.46386  eV     1   --> B_2  G_4 D_2'  
     e(  7 -  8) =     13.09620  eV     2   --> E    G_5 D_5   

 **************************************************************************

 **************************************************************************

                    xk=(  -0.65000,   0.00000,   0.00000  )

     Band symmetry, C_4v (4mm)  point group:

     e(  1 -  1) =     -3.94303  eV     1   --> A_1  G_1 D_1   
     e(  2 -  2) =      1.34616  eV     1   --> B_2  G_4 D_2'  
     e(  3 -  4) =      3.83452  eV     2   --> E    G_5 D_5   
     e(  5 -  5) =      6.96900  eV     1   --> A_1  G_1 D_1   
     e(  6 -  6) =      8.30630  eV     1   --> B_2  G_4 D_2'  
     e(  7 -  8) =     13.32567  eV     2   --> E    G_5 D_5   

 **************************************************************************

 **************************************************************************

                    xk=(  -0.67500,   0.00000,   0.00000  )

     Band symmetry, C_4v (4mm)  point group:

     e(  1 -  1) =     -3.80435  eV     1   --> A_1  G_1 D_1   
     e(  2 -  2) =      1.12364  eV     1   --> B_2  G_4 D_2'  
     e(  3 -  4) =      3.76926  eV     2   --> E    G_5 D_5   
     e(  5 -  5) =      6.92483  eV     1   --> A_1  G_1 D_1   
     e(  6 -  6) =      8.15633  eV     1   --> B_2  G_4 D_2'  
     e(  7 -  8) =     13.55651  eV     2   --> E    G_5 D_5   

 **************************************************************************

 **************************************************************************

                    xk=(  -0.70000,   0.00000,   0.00000  )

     Band symmetry, C_4v (4mm)  point group:

     e(  1 -  1) =     -3.66101  eV     1   --> A_1  G_1 D_1   
     e(  2 -  2) =      0.90214  eV     1   --> B_2  G_4 D_2'  
     e(  3 -  4) =      3.70861  eV     2   --> E    G_5 D_5   
     e(  5 -  5) =      6.88635  eV     1   --> A_1  G_1 D_1   
     e(  6 -  6) =      8.01402  eV     1   --> B_2  G_4 D_2'  
     e(  7 -  8) =     13.78863  eV     2   --> E    G_5 D_5   

 **************************************************************************

 **************************************************************************

                    xk=(  -0.72500,   0.00000,   0.00000  )

     Band symmetry, C_4v (4mm)  point group:

     e(  1 -  1) =     -3.51309  eV     1   --> A_1  G_1 D_1   
     e(  2 -  2) =      0.68183  eV     1   --> B_2  G_4 D_2'  
     e(  3 -  4) =      3.65260  eV     2   --> E    G_5 D_5   
     e(  5 -  5) =      6.85371  eV     1   --> A_1  G_1 D_1   
     e(  6 -  6) =      7.87954  eV     1   --> B_2  G_4 D_2'  
     e(  7 -  8) =     14.02193  eV     2   --> E    G_5 D_5   

 **************************************************************************

 **************************************************************************

                    xk=(  -0.75000,   0.00000,   0.00000  )

     Band symmetry, C_4v (4mm)  point group:

     e(  1 -  1) =     -3.36066  eV     1   --> A_1  G_1 D_1   
     e(  2 -  2) =      0.46293  eV     1   --> B_2  G_4 D_2'  
     e(  3 -  4) =      3.60134  eV     2   --> E    G_5 D_5   
     e(  5 -  5) =      6.82709  eV     1   --> A_1  G_1 D_1   
     e(  6 -  6) =      7.75297  eV     1   --> B_2  G_4 D_2'  
     e(  7 -  8) =     14.25629  eV     2   --> E    G_5 D_5   

 **************************************************************************

 **************************************************************************

                    xk=(  -0.77500,   0.00000,   0.00000  )

     Band symmetry, C_4v (4mm)  point group:

     e(  1 -  1) =     -3.20382  eV     1   --> A_1  G_1 D_1   
     e(  2 -  2) =      0.24560  eV     1   --> B_2  G_4 D_2'  
     e(  3 -  4) =      3.55485  eV     2   --> E    G_5 D_5   
     e(  5 -  5) =      6.80664  eV     1   --> A_1  G_1 D_1   
     e(  6 -  6) =      7.63438  eV     1   --> B_2  G_4 D_2'  
     e(  7 -  8) =     14.49155  eV     2   --> E    G_5 D_5   

 **************************************************************************

 **************************************************************************

                    xk=(  -0.80000,   0.00000,   0.00000  )

     Band symmetry, C_4v (4mm)  point group:

     e(  1 -  1) =     -3.04264  eV     1   --> A_1  G_1 D_1   
     e(  2 -  2) =      0.03004  eV     1   --> B_2  G_4 D_2'  
     e(  3 -  4) =      3.51317  eV     2   --> E    G_5 D_5   
     e(  5 -  5) =      6.79250  eV     1   --> A_1  G_1 D_1   
     e(  6 -  6) =      7.52378  eV     1   --> B_2  G_4 D_2'  
     e(  7 -  8) =     14.72745  eV     2   --> E    G_5 D_5   

 **************************************************************************

 **************************************************************************

                    xk=(  -0.82500,   0.00000,   0.00000  )

     Band symmetry, C_4v (4mm)  point group:

     e(  1 -  1) =     -2.87724  eV     1   --> A_1  G_1 D_1   
     e(  2 -  2) =     -0.18359  eV     1   --> B_2  G_4 D_2'  
     e(  3 -  4) =      3.47631  eV     2   --> E    G_5 D_5   
     e(  5 -  5) =      6.78481  eV     1   --> A_1  G_1 D_1   
     e(  6 -  6) =      7.42116  eV     1   --> B_2  G_4 D_2'  
     e(  7 -  8) =     14.96359  eV     2   --> E    G_5 D_5   

 **************************************************************************

 **************************************************************************

                    xk=(  -0.85000,   0.00000,   0.00000  )

     Band symmetry, C_4v (4mm)  point group:

     e(  1 -  1) =     -2.70769  eV     1   --> A_1  G_1 D_1   
     e(  2 -  2) =     -0.39509  eV     1   --> B_2  G_4 D_2'  
     e(  3 -  4) =      3.44433  eV     2   --> E    G_5 D_5   
     e(  5 -  5) =      6.78376  eV     1   --> A_1  G_1 D_1   
     e(  6 -  6) =      7.32653  eV     1   --> B_2  G_4 D_2'  
     e(  7 -  8) =     15.19938  eV     2   --> E    G_5 D_5   

 **************************************************************************

 **************************************************************************

                    xk=(  -0.87500,   0.00000,   0.00000  )

     Band symmetry, C_4v (4mm)  point group:

     e(  1 -  1) =     -2.53411  eV     1   --> A_1  G_1 D_1   
     e(  2 -  2) =     -0.60430  eV     1   --> B_2  G_4 D_2'  
     e(  3 -  4) =      3.41722  eV     2   --> E    G_5 D_5   
     e(  5 -  5) =      6.78936  eV     1   --> A_1  G_1 D_1   
     e(  6 -  6) =      7.23979  eV     1   --> B_2  G_4 D_2'  
     e(  7 -  8) =     15.43357  eV     2   --> E    G_5 D_5   

 **************************************************************************

 **************************************************************************

                    xk=(  -0.90000,   0.00000,   0.00000  )

     Band symmetry, C_4v (4mm)  point group:

     e(  1 -  1) =     -2.35661  eV     1   --> A_1  G_1 D_1   
     e(  2 -  2) =     -0.81103  eV     1   --> B_2  G_4 D_2'  
     e(  3 -  4) =      3.39502  eV     2   --> E    G_5 D_5   
     e(  5 -  5) =      6.80179  eV     1   --> A_1  G_1 D_1   
     e(  6 -  6) =      7.16089  eV     1   --> B_2  G_4 D_2'  
     e(  7 -  8) =     15.66404  eV     2   --> E    G_5 D_5   

 **************************************************************************

 **************************************************************************

                    xk=(  -0.92500,   0.00000,   0.00000  )

     Band symmetry, C_4v (4mm)  point group:

     e(  1 -  1) =     -2.17532  eV     1   --> A_1  G_1 D_1   
     e(  2 -  2) =     -1.01512  eV     1   --> B_2  G_4 D_2'  
     e(  3 -  4) =      3.37773  eV     2   --> E    G_5 D_5   
     e(  5 -  5) =      6.82116  eV     1   --> A_1  G_1 D_1   
     e(  6 -  6) =      7.08977  eV     1   --> B_2  G_4 D_2'  
     e(  7 -  8) =     15.88646  eV     2   --> E    G_5 D_5   

 **************************************************************************

 **************************************************************************

                    xk=(  -0.95000,   0.00000,   0.00000  )

     Band symmetry, C_4v (4mm)  point group:

     e(  1 -  1) =     -1.99035  eV     1   --> A_1  G_1 D_1   
     e(  2 -  2) =     -1.21640  eV     1   --> B_2  G_4 D_2'  
     e(  3 -  4) =      3.36538  eV     2   --> E    G_5 D_5   
     e(  5 -  5) =      6.84765  eV     1   --> A_1  G_1 D_1   
     e(  6 -  6) =      7.02635  eV     1   --> B_2  G_4 D_2'  
     e(  7 -  8) =     16.09102  eV     2   --> E    G_5 D_5   

 **************************************************************************

 **************************************************************************

                    xk=(  -0.97500,   0.00000,   0.00000  )

     Band symmetry, C_4v (4mm)  point group:

     e(  1 -  1) =     -1.80184  eV     1   --> A_1  G_1 D_1   
     e(  2 -  2) =     -1.41472  eV     1   --> B_2  G_4 D_2'  
     e(  3 -  4) =      3.35796  eV     2   --> E    G_5 D_5   
     e(  5 -  5) =      6.88128  eV     1   --> A_1  G_1 D_1   
     e(  6 -  6) =      6.97052  eV     1   --> B_2  G_4 D_2'  
     e(  7 -  8) =     16.25296  eV     2   --> E    G_5 D_5   

 **************************************************************************

 **************************************************************************

                    xk=(  -1.00000,   0.00000,   0.00000  )

     zone border point and non-symmorphic group 
     symmetry decomposition not available

 **************************************************************************

 **************************************************************************

                    xk=(  -1.00000,   0.01250,   0.00000  )

     zone border point and non-symmorphic group 
     symmetry decomposition not available

 **************************************************************************

 **************************************************************************

                    xk=(  -1.00000,   0.02500,   0.00000  )

     zone border point and non-symmorphic group 
     symmetry decomposition not available

 **************************************************************************

 **************************************************************************

                    xk=(  -1.00000,   0.03750,   0.00000  )

     zone border point and non-symmorphic group 
     symmetry decomposition not available

 **************************************************************************

 **************************************************************************

                    xk=(  -1.00000,   0.05000,   0.00000  )

     zone border point and non-symmorphic group 
     symmetry decomposition not available

 **************************************************************************

 **************************************************************************

                    xk=(  -1.00000,   0.06250,   0.00000  )

     zone border point and non-symmorphic group 
     symmetry decomposition not available

 **************************************************************************

 **************************************************************************

                    xk=(  -1.00000,   0.07500,   0.00000  )

     zone border point and non-symmorphic group 
     symmetry decomposition not available

 **************************************************************************

 **************************************************************************

                    xk=(  -1.00000,   0.08750,   0.00000  )

     zone border point and non-symmorphic group 
     symmetry decomposition not available

 **************************************************************************

 **************************************************************************

                    xk=(  -1.00000,   0.10000,   0.00000  )

     zone border point and non-symmorphic group 
     symmetry decomposition not available

 **************************************************************************

 **************************************************************************

                    xk=(  -1.00000,   0.11250,   0.00000  )

     zone border point and non-symmorphic group 
     symmetry decomposition not available

 **************************************************************************

 **************************************************************************

                    xk=(  -1.00000,   0.12500,   0.00000  )

     zone border point and non-symmorphic group 
     symmetry decomposition not available

 **************************************************************************

 **************************************************************************

                    xk=(  -1.00000,   0.13750,   0.00000  )

     zone border point and non-symmorphic group 
     symmetry decomposition not available

 **************************************************************************

 **************************************************************************

                    xk=(  -1.00000,   0.15000,   0.00000  )

     zone border point and non-symmorphic group 
     symmetry decomposition not available

 **************************************************************************

 **************************************************************************

                    xk=(  -1.00000,   0.16250,   0.00000  )

     zone border point and non-symmorphic group 
     symmetry decomposition not available

 **************************************************************************

 **************************************************************************

                    xk=(  -1.00000,   0.17500,   0.00000  )

     zone border point and non-symmorphic group 
     symmetry decomposition not available

 **************************************************************************

 **************************************************************************

                    xk=(  -1.00000,   0.18750,   0.00000  )

     zone border point and non-symmorphic group 
     symmetry decomposition not available

 **************************************************************************

 **************************************************************************

                    xk=(  -1.00000,   0.20000,   0.00000  )

     zone border point and non-symmorphic group 
     symmetry decomposition not available

 **************************************************************************

 **************************************************************************

                    xk=(  -1.00000,   0.21250,   0.00000  )

     zone border point and non-symmorphic group 
     symmetry decomposition not available

 **************************************************************************

 **************************************************************************

                    xk=(  -1.00000,   0.22500,   0.00000  )

     zone border point and non-symmorphic group 
     symmetry decomposition not available

 **************************************************************************

 **************************************************************************

                    xk=(  -1.00000,   0.23750,   0.00000  )

     zone border point and non-symmorphic group 
     symmetry decomposition not available

 **************************************************************************

 **************************************************************************

                    xk=(  -1.00000,   0.25000,   0.00000  )

     zone border point and non-symmorphic group 
     symmetry decomposition not available

 **************************************************************************

 **************************************************************************

                    xk=(  -1.00000,   0.26250,   0.00000  )

     zone border point and non-symmorphic group 
     symmetry decomposition not available

 **************************************************************************

 **************************************************************************

                    xk=(  -1.00000,   0.27500,   0.00000  )

     zone border point and non-symmorphic group 
     symmetry decomposition not available

 **************************************************************************

 **************************************************************************

                    xk=(  -1.00000,   0.28750,   0.00000  )

     zone border point and non-symmorphic group 
     symmetry decomposition not available

 **************************************************************************

 **************************************************************************

                    xk=(  -1.00000,   0.30000,   0.00000  )

     zone border point and non-symmorphic group 
     symmetry decomposition not available

 **************************************************************************

 **************************************************************************

                    xk=(  -1.00000,   0.31250,   0.00000  )

     zone border point and non-symmorphic group 
     symmetry decomposition not available

 **************************************************************************

 **************************************************************************

                    xk=(  -1.00000,   0.32500,   0.00000  )

     zone border point and non-symmorphic group 
     symmetry decomposition not available

 **************************************************************************

 **************************************************************************

                    xk=(  -1.00000,   0.33750,   0.00000  )

     zone border point and non-symmorphic group 
     symmetry decomposition not available

 **************************************************************************

 **************************************************************************

                    xk=(  -1.00000,   0.35000,   0.00000  )

     zone border point and non-symmorphic group 
     symmetry decomposition not available

 **************************************************************************

 **************************************************************************

                    xk=(  -1.00000,   0.36250,   0.00000  )

     zone border point and non-symmorphic group 
     symmetry decomposition not available

 **************************************************************************

 **************************************************************************

                    xk=(  -1.00000,   0.37500,   0.00000  )

     zone border point and non-symmorphic group 
     symmetry decomposition not available

 **************************************************************************

 **************************************************************************

                    xk=(  -1.00000,   0.38750,   0.00000  )

     zone border point and non-symmorphic group 
     symmetry decomposition not available

 **************************************************************************

 **************************************************************************

                    xk=(  -1.00000,   0.40000,   0.00000  )

     zone border point and non-symmorphic group 
     symmetry decomposition not available

 **************************************************************************

 **************************************************************************

                    xk=(  -1.00000,   0.41250,   0.00000  )

     zone border point and non-symmorphic group 
     symmetry decomposition not available

 **************************************************************************

 **************************************************************************

                    xk=(  -1.00000,   0.42500,   0.00000  )

     zone border point and non-symmorphic group 
     symmetry decomposition not available

 **************************************************************************

 **************************************************************************

                    xk=(  -1.00000,   0.43750,   0.00000  )

     zone border point and non-symmorphic group 
     symmetry decomposition not available

 **************************************************************************

 **************************************************************************

                    xk=(  -1.00000,   0.45000,   0.00000  )

     zone border point and non-symmorphic group 
     symmetry decomposition not available

 **************************************************************************

 **************************************************************************

                    xk=(  -1.00000,   0.46250,   0.00000  )

     zone border point and non-symmorphic group 
     symmetry decomposition not available

 **************************************************************************

 **************************************************************************

                    xk=(  -1.00000,   0.47500,   0.00000  )

     zone border point and non-symmorphic group 
     symmetry decomposition not available

 **************************************************************************

 **************************************************************************

                    xk=(  -1.00000,   0.48750,   0.00000  )

     zone border point and non-symmorphic group 
     symmetry decomposition not available

 **************************************************************************

 **************************************************************************

                    xk=(  -1.00000,   0.50000,   0.00000  )

     zone border point and non-symmorphic group 
     symmetry decomposition not available

 **************************************************************************

 **************************************************************************

                    xk=(  -0.99375,   0.50625,   0.00000  )

     point group C_s (m)    
     there are  2 classes
     the character table:

       E     s    
A'     1.00  1.00
A''    1.00 -1.00

     the symmetry operations in each class and the name of the first element:

     E        1
                                                                 
     s        2
                                                                 

     Band symmetry, C_s (m)     point group:

     e(  1 -  1) =     -1.47413  eV     1   --> A'             
     e(  2 -  2) =     -1.41758  eV     1   --> A''            
     e(  3 -  3) =      2.33309  eV     1   --> A'             
     e(  4 -  4) =      2.37715  eV     1   --> A''            
     e(  5 -  5) =     10.44977  eV     1   --> A''            
     e(  6 -  6) =     10.50473  eV     1   --> A'             
     e(  7 -  7) =     11.20827  eV     1   --> A''            
     e(  8 -  8) =     11.24438  eV     1   --> A'             

 **************************************************************************

 **************************************************************************

                    xk=(  -0.98750,   0.51250,   0.00000  )

     Band symmetry, C_s (m)     point group:

     e(  1 -  1) =     -1.50181  eV     1   --> A'             
     e(  2 -  2) =     -1.39061  eV     1   --> A''            
     e(  3 -  3) =      2.31214  eV     1   --> A'             
     e(  4 -  4) =      2.40177  eV     1   --> A''            
     e(  5 -  5) =     10.38832  eV     1   --> A''            
     e(  6 -  6) =     10.51917  eV     1   --> A'             
     e(  7 -  7) =     11.22657  eV     1   --> A''            
     e(  8 -  8) =     11.27724  eV     1   --> A'             

 **************************************************************************

 **************************************************************************

                    xk=(  -0.98125,   0.51875,   0.00000  )

     Band symmetry, C_s (m)     point group:

     e(  1 -  1) =     -1.52879  eV     1   --> A'             
     e(  2 -  2) =     -1.36482  eV     1   --> A''            
     e(  3 -  3) =      2.29165  eV     1   --> A'             
     e(  4 -  4) =      2.42836  eV     1   --> A''            
     e(  5 -  5) =     10.30798  eV     1   --> A''            
     e(  6 -  6) =     10.52926  eV     1   --> A'             
     e(  7 -  7) =     11.26548  eV     1   --> A''            
     e(  8 -  8) =     11.31551  eV     1   --> A'             

 **************************************************************************

 **************************************************************************

                    xk=(  -0.97500,   0.52500,   0.00000  )

     Band symmetry, C_s (m)     point group:

     e(  1 -  1) =     -1.55507  eV     1   --> A'             
     e(  2 -  2) =     -1.34021  eV     1   --> A''            
     e(  3 -  3) =      2.27163  eV     1   --> A'             
     e(  4 -  4) =      2.45688  eV     1   --> A''            
     e(  5 -  5) =     10.21525  eV     1   --> A''            
     e(  6 -  6) =     10.53549  eV     1   --> A'             
     e(  7 -  7) =     11.31853  eV     1   --> A''            
     e(  8 -  8) =     11.35871  eV     1   --> A'             

 **************************************************************************

 **************************************************************************

                    xk=(  -0.96875,   0.53125,   0.00000  )

     Band symmetry, C_s (m)     point group:

     e(  1 -  1) =     -1.58063  eV     1   --> A'             
     e(  2 -  2) =     -1.31678  eV     1   --> A''            
     e(  3 -  3) =      2.25210  eV     1   --> A'             
     e(  4 -  4) =      2.48729  eV     1   --> A''            
     e(  5 -  5) =     10.11486  eV     1   --> A''            
     e(  6 -  6) =     10.53838  eV     1   --> A'             
     e(  7 -  7) =     11.38104  eV     1   --> A''            
     e(  8 -  8) =     11.40628  eV     1   --> A'             

 **************************************************************************

 **************************************************************************

                    xk=(  -0.96250,   0.53750,   0.00000  )

     Band symmetry, C_s (m)     point group:

     e(  1 -  1) =     -1.60549  eV     1   --> A'             
     e(  2 -  2) =     -1.29451  eV     1   --> A''            
     e(  3 -  3) =      2.23304  eV     1   --> A'             
     e(  4 -  4) =      2.51953  eV     1   --> A''            
     e(  5 -  5) =     10.00985  eV     1   --> A''            
     e(  6 -  6) =     10.53850  eV     1   --> A'             
     e(  7 -  7) =     11.44999  eV     1   --> A''            
     e(  8 -  8) =     11.45767  eV     1   --> A'             

 **************************************************************************

 **************************************************************************

                    xk=(  -0.95625,   0.54375,   0.00000  )

     Band symmetry, C_s (m)     point group:

     e(  1 -  1) =     -1.62964  eV     1   --> A'             
     e(  2 -  2) =     -1.27339  eV     1   --> A''            
     e(  3 -  3) =      2.21449  eV     1   --> A'             
     e(  4 -  4) =      2.55356  eV     1   --> A''            
     e(  5 -  5) =      9.90216  eV     1   --> A''            
     e(  6 -  6) =     10.53634  eV     1   --> A'             
     e(  7 -  7) =     11.51235  eV     1   --> A'             
     e(  8 -  8) =     11.52350  eV     1   --> A''            

 **************************************************************************

 **************************************************************************

                    xk=(  -0.95000,   0.55000,   0.00000  )

     Band symmetry, C_s (m)     point group:

     e(  1 -  1) =     -1.65308  eV     1   --> A'             
     e(  2 -  2) =     -1.25340  eV     1   --> A''            
     e(  3 -  3) =      2.19643  eV     1   --> A'             
     e(  4 -  4) =      2.58931  eV     1   --> A''            
     e(  5 -  5) =      9.79302  eV     1   --> A''            
     e(  6 -  6) =     10.53237  eV     1   --> A'             
     e(  7 -  7) =     11.56991  eV     1   --> A'             
     e(  8 -  8) =     11.60038  eV     1   --> A''            

 **************************************************************************

 **************************************************************************

                    xk=(  -0.94375,   0.55625,   0.00000  )

     Band symmetry, C_s (m)     point group:

     e(  1 -  1) =     -1.67581  eV     1   --> A'             
     e(  2 -  2) =     -1.23451  eV     1   --> A''            
     e(  3 -  3) =      2.17887  eV     1   --> A'             
     e(  4 -  4) =      2.62671  eV     1   --> A''            
     e(  5 -  5) =      9.68326  eV     1   --> A''            
     e(  6 -  6) =     10.52695  eV     1   --> A'             
     e(  7 -  7) =     11.62984  eV     1   --> A'             
     e(  8 -  8) =     11.67982  eV     1   --> A''            

 **************************************************************************

 **************************************************************************

                    xk=(  -0.93750,   0.56250,   0.00000  )

     Band symmetry, C_s (m)     point group:

     e(  1 -  1) =     -1.69783  eV     1   --> A'             
     e(  2 -  2) =     -1.21671  eV     1   --> A''            
     e(  3 -  3) =      2.16181  eV     1   --> A'             
     e(  4 -  4) =      2.66567  eV     1   --> A''            
     e(  5 -  5) =      9.57336  eV     1   --> A''            
     e(  6 -  6) =     10.52041  eV     1   --> A'             
     e(  7 -  7) =     11.69183  eV     1   --> A'             
     e(  8 -  8) =     11.76130  eV     1   --> A''            

 **************************************************************************

 **************************************************************************

                    xk=(  -0.93125,   0.56875,   0.00000  )

     Band symmetry, C_s (m)     point group:

     e(  1 -  1) =     -1.71912  eV     1   --> A'             
     e(  2 -  2) =     -1.19996  eV     1   --> A''            
     e(  3 -  3) =      2.14528  eV     1   --> A'             
     e(  4 -  4) =      2.70612  eV     1   --> A''            
     e(  5 -  5) =      9.46395  eV     1   --> A''            
     e(  6 -  6) =     10.51306  eV     1   --> A'             
     e(  7 -  7) =     11.75569  eV     1   --> A'             
     e(  8 -  8) =     11.84456  eV     1   --> A''            

 **************************************************************************

 **************************************************************************

                    xk=(  -0.92500,   0.57500,   0.00000  )

     Band symmetry, C_s (m)     point group:

     e(  1 -  1) =     -1.73971  eV     1   --> A'             
     e(  2 -  2) =     -1.18424  eV     1   --> A''            
     e(  3 -  3) =      2.12926  eV     1   --> A'             
     e(  4 -  4) =      2.74795  eV     1   --> A''            
     e(  5 -  5) =      9.35520  eV     1   --> A''            
     e(  6 -  6) =     10.50505  eV     1   --> A'             
     e(  7 -  7) =     11.82106  eV     1   --> A'             
     e(  8 -  8) =     11.92917  eV     1   --> A''            

 **************************************************************************

 **************************************************************************

                    xk=(  -0.91875,   0.58125,   0.00000  )

     Band symmetry, C_s (m)     point group:

     e(  1 -  1) =     -1.75959  eV     1   --> A'             
     e(  2 -  2) =     -1.16950  eV     1   --> A''            
     e(  3 -  3) =      2.11377  eV     1   --> A'             
     e(  4 -  4) =      2.79107  eV     1   --> A''            
     e(  5 -  5) =      9.24741  eV     1   --> A''            
     e(  6 -  6) =     10.49662  eV     1   --> A'             
     e(  7 -  7) =     11.88782  eV     1   --> A'             
     e(  8 -  8) =     12.01503  eV     1   --> A''            

 **************************************************************************

 **************************************************************************

                    xk=(  -0.91250,   0.58750,   0.00000  )

     Band symmetry, C_s (m)     point group:

     e(  1 -  1) =     -1.77874  eV     1   --> A'             
     e(  2 -  2) =     -1.15572  eV     1   --> A''            
     e(  3 -  3) =      2.09880  eV     1   --> A'             
     e(  4 -  4) =      2.83536  eV     1   --> A''            
     e(  5 -  5) =      9.14079  eV     1   --> A''            
     e(  6 -  6) =     10.48790  eV     1   --> A'             
     e(  7 -  7) =     11.95577  eV     1   --> A'             
     e(  8 -  8) =     12.10198  eV     1   --> A''            

 **************************************************************************

 **************************************************************************

                    xk=(  -0.90625,   0.59375,   0.00000  )

     Band symmetry, C_s (m)     point group:

     e(  1 -  1) =     -1.79718  eV     1   --> A'             
     e(  2 -  2) =     -1.14286  eV     1   --> A''            
     e(  3 -  3) =      2.08437  eV     1   --> A'             
     e(  4 -  4) =      2.88070  eV     1   --> A''            
     e(  5 -  5) =      9.03552  eV     1   --> A''            
     e(  6 -  6) =     10.47900  eV     1   --> A'             
     e(  7 -  7) =     12.02479  eV     1   --> A'             
     e(  8 -  8) =     12.18993  eV     1   --> A''            

 **************************************************************************

 **************************************************************************

                    xk=(  -0.90000,   0.60000,   0.00000  )

     Band symmetry, C_s (m)     point group:

     e(  1 -  1) =     -1.81490  eV     1   --> A'             
     e(  2 -  2) =     -1.13087  eV     1   --> A''            
     e(  3 -  3) =      2.07047  eV     1   --> A'             
     e(  4 -  4) =      2.92697  eV     1   --> A''            
     e(  5 -  5) =      8.93177  eV     1   --> A''            
     e(  6 -  6) =     10.47005  eV     1   --> A'             
     e(  7 -  7) =     12.09474  eV     1   --> A'             
     e(  8 -  8) =     12.27877  eV     1   --> A''            

 **************************************************************************

 **************************************************************************

                    xk=(  -0.89375,   0.60625,   0.00000  )

     Band symmetry, C_s (m)     point group:

     e(  1 -  1) =     -1.83190  eV     1   --> A'             
     e(  2 -  2) =     -1.11973  eV     1   --> A''            
     e(  3 -  3) =      2.05711  eV     1   --> A'             
     e(  4 -  4) =      2.97402  eV     1   --> A''            
     e(  5 -  5) =      8.82971  eV     1   --> A''            
     e(  6 -  6) =     10.46111  eV     1   --> A'             
     e(  7 -  7) =     12.16551  eV     1   --> A'             
     e(  8 -  8) =     12.36844  eV     1   --> A''            

 **************************************************************************

 **************************************************************************

                    xk=(  -0.88750,   0.61250,   0.00000  )

     Band symmetry, C_s (m)     point group:

     e(  1 -  1) =     -1.84819  eV     1   --> A'             
     e(  2 -  2) =     -1.10939  eV     1   --> A''            
     e(  3 -  3) =      2.04430  eV     1   --> A'             
     e(  4 -  4) =      3.02171  eV     1   --> A''            
     e(  5 -  5) =      8.72949  eV     1   --> A''            
     e(  6 -  6) =     10.45226  eV     1   --> A'             
     e(  7 -  7) =     12.23703  eV     1   --> A'             
     e(  8 -  8) =     12.45889  eV     1   --> A''            

 **************************************************************************

 **************************************************************************

                    xk=(  -0.88125,   0.61875,   0.00000  )

     Band symmetry, C_s (m)     point group:

     e(  1 -  1) =     -1.86375  eV     1   --> A'             
     e(  2 -  2) =     -1.09981  eV     1   --> A''            
     e(  3 -  3) =      2.03203  eV     1   --> A'             
     e(  4 -  4) =      3.06988  eV     1   --> A''            
     e(  5 -  5) =      8.63131  eV     1   --> A''            
     e(  6 -  6) =     10.44356  eV     1   --> A'             
     e(  7 -  7) =     12.30919  eV     1   --> A'             
     e(  8 -  8) =     12.55007  eV     1   --> A''            

 **************************************************************************

 **************************************************************************

                    xk=(  -0.87500,   0.62500,   0.00000  )

     Band symmetry, C_s (m)     point group:

     e(  1 -  1) =     -1.87860  eV     1   --> A'             
     e(  2 -  2) =     -1.09096  eV     1   --> A''            
     e(  3 -  3) =      2.02032  eV     1   --> A'             
     e(  4 -  4) =      3.11835  eV     1   --> A''            
     e(  5 -  5) =      8.53528  eV     1   --> A''            
     e(  6 -  6) =     10.43506  eV     1   --> A'             
     e(  7 -  7) =     12.38192  eV     1   --> A'             
     e(  8 -  8) =     12.64192  eV     1   --> A''            

 **************************************************************************

 **************************************************************************

                    xk=(  -0.86875,   0.63125,   0.00000  )

     Band symmetry, C_s (m)     point group:

     e(  1 -  1) =     -1.89272  eV     1   --> A'             
     e(  2 -  2) =     -1.08281  eV     1   --> A''            
     e(  3 -  3) =      2.00916  eV     1   --> A'             
     e(  4 -  4) =      3.16694  eV     1   --> A''            
     e(  5 -  5) =      8.44160  eV     1   --> A''            
     e(  6 -  6) =     10.42679  eV     1   --> A'             
     e(  7 -  7) =     12.45515  eV     1   --> A'             
     e(  8 -  8) =     12.73439  eV     1   --> A''            

 **************************************************************************

 **************************************************************************

                    xk=(  -0.86250,   0.63750,   0.00000  )

     Band symmetry, C_s (m)     point group:

     e(  1 -  1) =     -1.90612  eV     1   --> A'             
     e(  2 -  2) =     -1.07531  eV     1   --> A''            
     e(  3 -  3) =      1.99855  eV     1   --> A'             
     e(  4 -  4) =      3.21546  eV     1   --> A''            
     e(  5 -  5) =      8.35036  eV     1   --> A''            
     e(  6 -  6) =     10.41881  eV     1   --> A'             
     e(  7 -  7) =     12.52880  eV     1   --> A'             
     e(  8 -  8) =     12.82747  eV     1   --> A''            

 **************************************************************************

 **************************************************************************

                    xk=(  -0.85625,   0.64375,   0.00000  )

     Band symmetry, C_s (m)     point group:

     e(  1 -  1) =     -1.91880  eV     1   --> A'             
     e(  2 -  2) =     -1.06842  eV     1   --> A''            
     e(  3 -  3) =      1.98851  eV     1   --> A'             
     e(  4 -  4) =      3.26370  eV     1   --> A''            
     e(  5 -  5) =      8.26194  eV     1   --> A''            
     e(  6 -  6) =     10.41113  eV     1   --> A'             
     e(  7 -  7) =     12.60285  eV     1   --> A'             
     e(  8 -  8) =     12.92112  eV     1   --> A''            

 **************************************************************************

 **************************************************************************

                    xk=(  -0.85000,   0.65000,   0.00000  )

     Band symmetry, C_s (m)     point group:

     e(  1 -  1) =     -1.93076  eV     1   --> A'             
     e(  2 -  2) =     -1.06213  eV     1   --> A''            
     e(  3 -  3) =      1.97901  eV     1   --> A'             
     e(  4 -  4) =      3.31144  eV     1   --> A''            
     e(  5 -  5) =      8.17644  eV     1   --> A''            
     e(  6 -  6) =     10.40374  eV     1   --> A'             
     e(  7 -  7) =     12.67714  eV     1   --> A'             
     e(  8 -  8) =     13.01527  eV     1   --> A''            

 **************************************************************************

 **************************************************************************

                    xk=(  -0.84375,   0.65625,   0.00000  )

     Band symmetry, C_s (m)     point group:

     e(  1 -  1) =     -1.94200  eV     1   --> A'             
     e(  2 -  2) =     -1.05638  eV     1   --> A''            
     e(  3 -  3) =      1.97009  eV     1   --> A'             
     e(  4 -  4) =      3.35844  eV     1   --> A''            
     e(  5 -  5) =      8.09408  eV     1   --> A''            
     e(  6 -  6) =     10.39675  eV     1   --> A'             
     e(  7 -  7) =     12.75164  eV     1   --> A'             
     e(  8 -  8) =     13.10994  eV     1   --> A''            

 **************************************************************************

 **************************************************************************

                    xk=(  -0.83750,   0.66250,   0.00000  )

     Band symmetry, C_s (m)     point group:

     e(  1 -  1) =     -1.95252  eV     1   --> A'             
     e(  2 -  2) =     -1.05116  eV     1   --> A''            
     e(  3 -  3) =      1.96173  eV     1   --> A'             
     e(  4 -  4) =      3.40445  eV     1   --> A''            
     e(  5 -  5) =      8.01506  eV     1   --> A''            
     e(  6 -  6) =     10.39015  eV     1   --> A'             
     e(  7 -  7) =     12.82626  eV     1   --> A'             
     e(  8 -  8) =     13.20504  eV     1   --> A''            

 **************************************************************************

 **************************************************************************

                    xk=(  -0.83125,   0.66875,   0.00000  )

     Band symmetry, C_s (m)     point group:

     e(  1 -  1) =     -1.96231  eV     1   --> A'             
     e(  2 -  2) =     -1.04642  eV     1   --> A''            
     e(  3 -  3) =      1.95394  eV     1   --> A'             
     e(  4 -  4) =      3.44921  eV     1   --> A''            
     e(  5 -  5) =      7.93971  eV     1   --> A''            
     e(  6 -  6) =     10.38394  eV     1   --> A'             
     e(  7 -  7) =     12.90091  eV     1   --> A'             
     e(  8 -  8) =     13.30059  eV     1   --> A''            

 **************************************************************************

 **************************************************************************

                    xk=(  -0.82500,   0.67500,   0.00000  )

     Band symmetry, C_s (m)     point group:

     e(  1 -  1) =     -1.97137  eV     1   --> A'             
     e(  2 -  2) =     -1.04215  eV     1   --> A''            
     e(  3 -  3) =      1.94672  eV     1   --> A'             
     e(  4 -  4) =      3.49243  eV     1   --> A''            
     e(  5 -  5) =      7.86824  eV     1   --> A''            
     e(  6 -  6) =     10.37814  eV     1   --> A'             
     e(  7 -  7) =     12.97549  eV     1   --> A'             
     e(  8 -  8) =     13.39652  eV     1   --> A''            

 **************************************************************************

 **************************************************************************

                    xk=(  -0.81875,   0.68125,   0.00000  )

     Band symmetry, C_s (m)     point group:

     e(  1 -  1) =     -1.97971  eV     1   --> A'             
     e(  2 -  2) =     -1.03832  eV     1   --> A''            
     e(  3 -  3) =      1.94007  eV     1   --> A'             
     e(  4 -  4) =      3.53384  eV     1   --> A''            
     e(  5 -  5) =      7.80094  eV     1   --> A''            
     e(  6 -  6) =     10.37277  eV     1   --> A'             
     e(  7 -  7) =     13.04990  eV     1   --> A'             
     e(  8 -  8) =     13.49285  eV     1   --> A''            

 **************************************************************************

 **************************************************************************

                    xk=(  -0.81250,   0.68750,   0.00000  )

     Band symmetry, C_s (m)     point group:

     e(  1 -  1) =     -1.98733  eV     1   --> A'             
     e(  2 -  2) =     -1.03490  eV     1   --> A''            
     e(  3 -  3) =      1.93400  eV     1   --> A'             
     e(  4 -  4) =      3.57310  eV     1   --> A''            
     e(  5 -  5) =      7.73808  eV     1   --> A''            
     e(  6 -  6) =     10.36783  eV     1   --> A'             
     e(  7 -  7) =     13.12390  eV     1   --> A'             
     e(  8 -  8) =     13.58938  eV     1   --> A''            

 **************************************************************************

 **************************************************************************

                    xk=(  -0.80625,   0.69375,   0.00000  )

     Band symmetry, C_s (m)     point group:

     e(  1 -  1) =     -1.99422  eV     1   --> A'             
     e(  2 -  2) =     -1.03187  eV     1   --> A''            
     e(  3 -  3) =      1.92850  eV     1   --> A'             
     e(  4 -  4) =      3.60992  eV     1   --> A''            
     e(  5 -  5) =      7.67996  eV     1   --> A''            
     e(  6 -  6) =     10.36334  eV     1   --> A'             
     e(  7 -  7) =     13.19732  eV     1   --> A'             
     e(  8 -  8) =     13.68610  eV     1   --> A''            

 **************************************************************************

 **************************************************************************

                    xk=(  -0.80000,   0.70000,   0.00000  )

     Band symmetry, C_s (m)     point group:

     e(  1 -  1) =     -2.00039  eV     1   --> A'             
     e(  2 -  2) =     -1.02922  eV     1   --> A''            
     e(  3 -  3) =      1.92357  eV     1   --> A'             
     e(  4 -  4) =      3.64398  eV     1   --> A''            
     e(  5 -  5) =      7.62688  eV     1   --> A''            
     e(  6 -  6) =     10.35929  eV     1   --> A'             
     e(  7 -  7) =     13.26985  eV     1   --> A'             
     e(  8 -  8) =     13.78293  eV     1   --> A''            

 **************************************************************************

 **************************************************************************

                    xk=(  -0.79375,   0.70625,   0.00000  )

     Band symmetry, C_s (m)     point group:

     e(  1 -  1) =     -2.00583  eV     1   --> A'             
     e(  2 -  2) =     -1.02692  eV     1   --> A''            
     e(  3 -  3) =      1.91922  eV     1   --> A'             
     e(  4 -  4) =      3.67499  eV     1   --> A''            
     e(  5 -  5) =      7.57918  eV     1   --> A''            
     e(  6 -  6) =     10.35572  eV     1   --> A'             
     e(  7 -  7) =     13.34112  eV     1   --> A'             
     e(  8 -  8) =     13.87972  eV     1   --> A''            

 **************************************************************************

 **************************************************************************

                    xk=(  -0.78750,   0.71250,   0.00000  )

     Band symmetry, C_s (m)     point group:

     e(  1 -  1) =     -2.01055  eV     1   --> A'             
     e(  2 -  2) =     -1.02496  eV     1   --> A''            
     e(  3 -  3) =      1.91545  eV     1   --> A'             
     e(  4 -  4) =      3.70259  eV     1   --> A''            
     e(  5 -  5) =      7.53709  eV     1   --> A''            
     e(  6 -  6) =     10.35260  eV     1   --> A'             
     e(  7 -  7) =     13.41048  eV     1   --> A'             
     e(  8 -  8) =     13.97625  eV     1   --> A''            

 **************************************************************************

 **************************************************************************

                    xk=(  -0.78125,   0.71875,   0.00000  )

     Band symmetry, C_s (m)     point group:

     e(  1 -  1) =     -2.01454  eV     1   --> A'             
     e(  2 -  2) =     -1.02333  eV     1   --> A''            
     e(  3 -  3) =      1.91226  eV     1   --> A'             
     e(  4 -  4) =      3.72650  eV     1   --> A''            
     e(  5 -  5) =      7.50082  eV     1   --> A''            
     e(  6 -  6) =     10.34995  eV     1   --> A'             
     e(  7 -  7) =     13.47704  eV     1   --> A'             
     e(  8 -  8) =     14.07219  eV     1   --> A''            

 **************************************************************************

 **************************************************************************

                    xk=(  -0.77500,   0.72500,   0.00000  )

     Band symmetry, C_s (m)     point group:

     e(  1 -  1) =     -2.01781  eV     1   --> A'             
     e(  2 -  2) =     -1.02200  eV     1   --> A''            
     e(  3 -  3) =      1.90964  eV     1   --> A'             
     e(  4 -  4) =      3.74649  eV     1   --> A''            
     e(  5 -  5) =      7.47083  eV     1   --> A''            
     e(  6 -  6) =     10.34777  eV     1   --> A'             
     e(  7 -  7) =     13.53939  eV     1   --> A'             
     e(  8 -  8) =     14.16689  eV     1   --> A''            

 **************************************************************************

 **************************************************************************

                    xk=(  -0.76875,   0.73125,   0.00000  )

     Band symmetry, C_s (m)     point group:

     e(  1 -  1) =     -2.02035  eV     1   --> A'             
     e(  2 -  2) =     -1.02098  eV     1   --> A''            
     e(  3 -  3) =      1.90761  eV     1   --> A'             
     e(  4 -  4) =      3.76229  eV     1   --> A''            
     e(  5 -  5) =      7.44725  eV     1   --> A''            
     e(  6 -  6) =     10.34608  eV     1   --> A'             
     e(  7 -  7) =     13.59529  eV     1   --> A'             
     e(  8 -  8) =     14.25903  eV     1   --> A''            

 **************************************************************************

 **************************************************************************

                    xk=(  -0.76250,   0.73750,   0.00000  )

     Band symmetry, C_s (m)     point group:

     e(  1 -  1) =     -2.02217  eV     1   --> A'             
     e(  2 -  2) =     -1.02026  eV     1   --> A''            
     e(  3 -  3) =      1.90616  eV     1   --> A'             
     e(  4 -  4) =      3.77373  eV     1   --> A''            
     e(  5 -  5) =      7.43026  eV     1   --> A''            
     e(  6 -  6) =     10.34487  eV     1   --> A'             
     e(  7 -  7) =     13.64124  eV     1   --> A'             
     e(  8 -  8) =     14.27391  eV     1   --> A'             

 **************************************************************************

 **************************************************************************

                    xk=(  -0.75625,   0.74375,   0.00000  )

     Band symmetry, C_s (m)     point group:

     e(  1 -  1) =     -2.02326  eV     1   --> A'             
     e(  2 -  2) =     -1.01983  eV     1   --> A''            
     e(  3 -  3) =      1.90529  eV     1   --> A'             
     e(  4 -  4) =      3.78066  eV     1   --> A''            
     e(  5 -  5) =      7.42002  eV     1   --> A''            
     e(  6 -  6) =     10.34414  eV     1   --> A'             
     e(  7 -  7) =     13.67236  eV     1   --> A'             
     e(  8 -  8) =     14.24298  eV     1   --> A'             

 **************************************************************************

 **************************************************************************

                    xk=(  -0.75000,   0.75000,   0.00000  )

     point group C_2v (mm2) 
     there are  4 classes
     the character table:

       E     C2    s_v   s_v' 
A_1    1.00  1.00  1.00  1.00
A_2    1.00  1.00 -1.00 -1.00
B_1    1.00 -1.00  1.00 -1.00
B_2    1.00 -1.00 -1.00  1.00

     the symmetry operations in each class and the name of the first element:

     E        1
                                                                 
     C2       2
                                                                 
     s_v      4
                                                                 
     s_v'     3
                                                                 

     Band symmetry, C_2v (mm2)  point group:

     e(  1 -  1) =     -2.02362  eV     1   --> A_1  D_1  S_1  
     e(  2 -  2) =     -1.01968  eV     1   --> B_1  D_3  S_3  
     e(  3 -  3) =      1.90500  eV     1   --> A_1  D_1  S_1  
     e(  4 -  4) =      3.78298  eV     1   --> A_2  D_2  S_2  
     e(  5 -  5) =      7.41659  eV     1   --> B_1  D_3  S_3  
     e(  6 -  6) =     10.34390  eV     1   --> A_1  D_1  S_1  
     e(  7 -  7) =     13.68351  eV     1   --> B_2  D_4  S_4  
     e(  8 -  8) =     14.23188  eV     1   --> A_1  D_1  S_1  

 **************************************************************************

 **************************************************************************

                    xk=(  -0.73125,   0.73125,   0.00000  )

     Band symmetry, C_2v (mm2)  point group:

     e(  1 -  1) =     -2.11258  eV     1   --> A_1  D_1  S_1  
     e(  2 -  2) =     -0.92815  eV     1   --> B_1  D_3  S_3  
     e(  3 -  3) =      1.84854  eV     1   --> A_1  D_1  S_1  
     e(  4 -  4) =      3.84714  eV     1   --> A_2  D_2  S_2  
     e(  5 -  5) =      7.49096  eV     1   --> B_1  D_3  S_3  
     e(  6 -  6) =     10.72391  eV     1   --> A_1  D_1  S_1  
     e(  7 -  7) =     13.45316  eV     1   --> B_2  D_4  S_4  
     e(  8 -  8) =     13.99683  eV     1   --> A_1  D_1  S_1  

 **************************************************************************

 **************************************************************************

                    xk=(  -0.71250,   0.71250,   0.00000  )

     Band symmetry, C_2v (mm2)  point group:

     e(  1 -  1) =     -2.21149  eV     1   --> A_1  D_1  S_1  
     e(  2 -  2) =     -0.83011  eV     1   --> B_1  D_3  S_3  
     e(  3 -  3) =      1.81065  eV     1   --> A_1  D_1  S_1  
     e(  4 -  4) =      3.91517  eV     1   --> A_2  D_2  S_2  
     e(  5 -  5) =      7.56982  eV     1   --> B_1  D_3  S_3  
     e(  6 -  6) =     11.10769  eV     1   --> A_1  D_1  S_1  
     e(  7 -  7) =     13.22666  eV     1   --> B_2  D_4  S_4  
     e(  8 -  8) =     13.77076  eV     1   --> A_1  D_1  S_1  

 **************************************************************************

 **************************************************************************

                    xk=(  -0.69375,   0.69375,   0.00000  )

     Band symmetry, C_2v (mm2)  point group:

     e(  1 -  1) =     -2.31966  eV     1   --> A_1  D_1  S_1  
     e(  2 -  2) =     -0.72556  eV     1   --> B_1  D_3  S_3  
     e(  3 -  3) =      1.79112  eV     1   --> A_1  D_1  S_1  
     e(  4 -  4) =      3.98689  eV     1   --> A_2  D_2  S_2  
     e(  5 -  5) =      7.65295  eV     1   --> B_1  D_3  S_3  
     e(  6 -  6) =     11.49078  eV     1   --> A_1  D_1  S_1  
     e(  7 -  7) =     13.00436  eV     1   --> B_2  D_4  S_4  
     e(  8 -  8) =     13.55746  eV     1   --> A_1  D_1  S_1  

 **************************************************************************

 **************************************************************************

                    xk=(  -0.67500,   0.67500,   0.00000  )

     Band symmetry, C_2v (mm2)  point group:

     e(  1 -  1) =     -2.43614  eV     1   --> A_1  D_1  S_1  
     e(  2 -  2) =     -0.61455  eV     1   --> B_1  D_3  S_3  
     e(  3 -  3) =      1.78937  eV     1   --> A_1  D_1  S_1  
     e(  4 -  4) =      4.06210  eV     1   --> A_2  D_2  S_2  
     e(  5 -  5) =      7.74005  eV     1   --> B_1  D_3  S_3  
     e(  6 -  6) =     11.86302  eV     1   --> A_1  D_1  S_1  
     e(  7 -  7) =     12.78654  eV     1   --> B_2  D_4  S_4  
     e(  8 -  8) =     13.36598  eV     1   --> A_1  D_1  S_1  

 **************************************************************************

 **************************************************************************

                    xk=(  -0.65625,   0.65625,   0.00000  )

     Band symmetry, C_2v (mm2)  point group:

     e(  1 -  1) =     -2.55978  eV     1   --> A_1  D_1  S_1  
     e(  2 -  2) =     -0.49710  eV     1   --> B_1  D_3  S_3  
     e(  3 -  3) =      1.80460  eV     1   --> A_1  D_1  S_1  
     e(  4 -  4) =      4.14057  eV     1   --> A_2  D_2  S_2  
     e(  5 -  5) =      7.83084  eV     1   --> B_1  D_3  S_3  
     e(  6 -  6) =     12.19560  eV     1   --> A_1  D_1  S_1  
     e(  7 -  7) =     12.57346  eV     1   --> B_2  D_4  S_4  
     e(  8 -  8) =     13.22486  eV     1   --> A_1  D_1  S_1  

 **************************************************************************

 **************************************************************************

                    xk=(  -0.63750,   0.63750,   0.00000  )

     Band symmetry, C_2v (mm2)  point group:

     e(  1 -  1) =     -2.68936  eV     1   --> A_1  D_1  S_1  
     e(  2 -  2) =     -0.37323  eV     1   --> B_1  D_3  S_3  
     e(  3 -  3) =      1.83580  eV     1   --> A_1  D_1  S_1  
     e(  4 -  4) =      4.22206  eV     1   --> A_2  D_2  S_2  
     e(  5 -  5) =      7.92494  eV     1   --> B_1  D_3  S_3  
     e(  6 -  6) =     12.36531  eV     1   --> B_2  D_4  S_4  
     e(  7 -  7) =     12.40132  eV     1   --> A_1  D_1  S_1  
     e(  8 -  8) =     13.22016  eV     1   --> A_1  D_1  S_1  

 **************************************************************************

 **************************************************************************

                    xk=(  -0.61875,   0.61875,   0.00000  )

     Band symmetry, C_2v (mm2)  point group:

[...]

 **************************************************************************

                    xk=(  -0.12500,   0.12500,   0.12500  )

     Band symmetry, C_3v (3m)   point group:

     e(  1 -  1) =     -5.55184  eV     1   --> A_1  L_1       
     e(  2 -  2) =      4.61115  eV     1   --> A_1  L_1       
     e(  3 -  4) =      5.92172  eV     2   --> E    L_3       
     e(  5 -  5) =      8.71441  eV     1   --> A_1  L_1       
     e(  6 -  7) =      9.19933  eV     2   --> E    L_3       
     e(  8 -  8) =     10.92546  eV     1   --> A_1  L_1       

 **************************************************************************

 **************************************************************************

                    xk=(  -0.13750,   0.13750,   0.13750  )

     Band symmetry, C_3v (3m)   point group:

     e(  1 -  1) =     -5.50927  eV     1   --> A_1  L_1       
     e(  2 -  2) =      4.37829  eV     1   --> A_1  L_1       
     e(  3 -  4) =      5.87400  eV     2   --> E    L_3       
     e(  5 -  5) =      8.67208  eV     1   --> A_1  L_1       
     e(  6 -  7) =      9.26755  eV     2   --> E    L_3       
     e(  8 -  8) =     11.14528  eV     1   --> A_1  L_1       

 **************************************************************************

 **************************************************************************

                    xk=(  -0.15000,   0.15000,   0.15000  )

     Band symmetry, C_3v (3m)   point group:

     e(  1 -  1) =     -5.46277  eV     1   --> A_1  L_1       
     e(  2 -  2) =      4.14324  eV     1   --> A_1  L_1       
     e(  3 -  4) =      5.82539  eV     2   --> E    L_3       
     e(  5 -  5) =      8.62694  eV     1   --> A_1  L_1       
     e(  6 -  7) =      9.33533  eV     2   --> E    L_3       
     e(  8 -  8) =     11.36819  eV     1   --> A_1  L_1       

 **************************************************************************

 **************************************************************************

                    xk=(  -0.16250,   0.16250,   0.16250  )

     Band symmetry, C_3v (3m)   point group:

     e(  1 -  1) =     -5.41238  eV     1   --> A_1  L_1       
     e(  2 -  2) =      3.90716  eV     1   --> A_1  L_1       
     e(  3 -  4) =      5.77640  eV     2   --> E    L_3       
     e(  5 -  5) =      8.57981  eV     1   --> A_1  L_1       
     e(  6 -  7) =      9.40131  eV     2   --> E    L_3       
     e(  8 -  8) =     11.59274  eV     1   --> A_1  L_1       

 **************************************************************************

 **************************************************************************

                    xk=(  -0.17500,   0.17500,   0.17500  )

     Band symmetry, C_3v (3m)   point group:

     e(  1 -  1) =     -5.35817  eV     1   --> A_1  L_1       
     e(  2 -  2) =      3.67086  eV     1   --> A_1  L_1       
     e(  3 -  4) =      5.72731  eV     2   --> E    L_3       
     e(  5 -  5) =      8.53142  eV     1   --> A_1  L_1       
     e(  6 -  7) =      9.46414  eV     2   --> E    L_3       
     e(  8 -  8) =     11.81794  eV     1   --> A_1  L_1       

 **************************************************************************

 **************************************************************************

                    xk=(  -0.18750,   0.18750,   0.18750  )

     Band symmetry, C_3v (3m)   point group:

     e(  1 -  1) =     -5.30017  eV     1   --> A_1  L_1       
     e(  2 -  2) =      3.43503  eV     1   --> A_1  L_1       
     e(  3 -  4) =      5.67869  eV     2   --> E    L_3       
     e(  5 -  5) =      8.48234  eV     1   --> A_1  L_1       
     e(  6 -  7) =      9.52265  eV     2   --> E    L_3       
     e(  8 -  8) =     12.04287  eV     1   --> A_1  L_1       

 **************************************************************************

 **************************************************************************

                    xk=(  -0.20000,   0.20000,   0.20000  )

     Band symmetry, C_3v (3m)   point group:

     e(  1 -  1) =     -5.23845  eV     1   --> A_1  L_1       
     e(  2 -  2) =      3.20026  eV     1   --> A_1  L_1       
     e(  3 -  4) =      5.63074  eV     2   --> E    L_3       
     e(  5 -  5) =      8.43309  eV     1   --> A_1  L_1       
     e(  6 -  7) =      9.57576  eV     2   --> E    L_3       
     e(  8 -  8) =     12.26680  eV     1   --> A_1  L_1       

 **************************************************************************

 **************************************************************************

                    xk=(  -0.21250,   0.21250,   0.21250  )

     Band symmetry, C_3v (3m)   point group:

     e(  1 -  1) =     -5.17309  eV     1   --> A_1  L_1       
     e(  2 -  2) =      2.96706  eV     1   --> A_1  L_1       
     e(  3 -  4) =      5.58368  eV     2   --> E    L_3       
     e(  5 -  5) =      8.38408  eV     1   --> A_1  L_1       
     e(  6 -  7) =      9.62237  eV     2   --> E    L_3       
     e(  8 -  8) =     12.48889  eV     1   --> A_1  L_1       

 **************************************************************************

 **************************************************************************

                    xk=(  -0.22500,   0.22500,   0.22500  )

     Band symmetry, C_3v (3m)   point group:

     e(  1 -  1) =     -5.10417  eV     1   --> A_1  L_1       
     e(  2 -  2) =      2.73589  eV     1   --> A_1  L_1       
     e(  3 -  4) =      5.53779  eV     2   --> E    L_3       
     e(  5 -  5) =      8.33570  eV     1   --> A_1  L_1       
     e(  6 -  7) =      9.66193  eV     2   --> E    L_3       
     e(  8 -  8) =     12.70832  eV     1   --> A_1  L_1       

 **************************************************************************

 **************************************************************************

                    xk=(  -0.23750,   0.23750,   0.23750  )

     Band symmetry, C_3v (3m)   point group:

     e(  1 -  1) =     -5.03178  eV     1   --> A_1  L_1       
     e(  2 -  2) =      2.50714  eV     1   --> A_1  L_1       
     e(  3 -  4) =      5.49322  eV     2   --> E    L_3       
     e(  5 -  5) =      8.28819  eV     1   --> A_1  L_1       
     e(  6 -  7) =      9.69394  eV     2   --> E    L_3       
     e(  8 -  8) =     12.92386  eV     1   --> A_1  L_1       

 **************************************************************************

 **************************************************************************

                    xk=(  -0.25000,   0.25000,   0.25000  )

     Band symmetry, C_3v (3m)   point group:

     e(  1 -  1) =     -4.95606  eV     1   --> A_1  L_1       
     e(  2 -  2) =      2.28118  eV     1   --> A_1  L_1       
     e(  3 -  4) =      5.45015  eV     2   --> E    L_3       
     e(  5 -  5) =      8.24185  eV     1   --> A_1  L_1       
     e(  6 -  7) =      9.71833  eV     2   --> E    L_3       
     e(  8 -  8) =     13.13394  eV     1   --> A_1  L_1       

 **************************************************************************

 **************************************************************************

                    xk=(  -0.26250,   0.26250,   0.26250  )

     Band symmetry, C_3v (3m)   point group:

     e(  1 -  1) =     -4.87712  eV     1   --> A_1  L_1       
     e(  2 -  2) =      2.05834  eV     1   --> A_1  L_1       
     e(  3 -  4) =      5.40871  eV     2   --> E    L_3       
     e(  5 -  5) =      8.19690  eV     1   --> A_1  L_1       
     e(  6 -  7) =      9.73525  eV     2   --> E    L_3       
     e(  8 -  8) =     13.33619  eV     1   --> A_1  L_1       

 **************************************************************************

 **************************************************************************

                    xk=(  -0.27500,   0.27500,   0.27500  )

     Band symmetry, C_3v (3m)   point group:

     e(  1 -  1) =     -4.79513  eV     1   --> A_1  L_1       
     e(  2 -  2) =      1.83905  eV     1   --> A_1  L_1       
     e(  3 -  4) =      5.36901  eV     2   --> E    L_3       
     e(  5 -  5) =      8.15352  eV     1   --> A_1  L_1       
     e(  6 -  7) =      9.74511  eV     2   --> E    L_3       
     e(  8 -  8) =     13.52700  eV     1   --> A_1  L_1       

 **************************************************************************

 **************************************************************************

                    xk=(  -0.28750,   0.28750,   0.28750  )

     Band symmetry, C_3v (3m)   point group:

     e(  1 -  1) =     -4.71027  eV     1   --> A_1  L_1       
     e(  2 -  2) =      1.62362  eV     1   --> A_1  L_1       
     e(  3 -  4) =      5.33114  eV     2   --> E    L_3       
     e(  5 -  5) =      8.11189  eV     1   --> A_1  L_1       
     e(  6 -  7) =      9.74857  eV     2   --> E    L_3       
     e(  8 -  8) =     13.69467  eV     1   -->   ?

 **************************************************************************

 **************************************************************************

                    xk=(  -0.30000,   0.30000,   0.30000  )

     Band symmetry, C_3v (3m)   point group:

     e(  1 -  1) =     -4.62277  eV     1   --> A_1  L_1       
     e(  2 -  2) =      1.41241  eV     1   --> A_1  L_1       
     e(  3 -  4) =      5.29519  eV     2   --> E    L_3       
     e(  5 -  5) =      8.07214  eV     1   --> A_1  L_1       
     e(  6 -  7) =      9.74639  eV     2   --> E    L_3       
     e(  8 -  8) =     13.81690  eV     1   -->   ?

 **************************************************************************

 **************************************************************************

                    xk=(  -0.31250,   0.31250,   0.31250  )

     Band symmetry, C_3v (3m)   point group:

     e(  1 -  1) =     -4.53289  eV     1   --> A_1  L_1       
     e(  2 -  2) =      1.20583  eV     1   --> A_1  L_1       
     e(  3 -  4) =      5.26122  eV     2   --> E    L_3       
     e(  5 -  5) =      8.03438  eV     1   --> A_1  L_1       
     e(  6 -  7) =      9.73946  eV     2   --> E    L_3       
     e(  8 -  8) =     13.95280  eV     1   -->   ?

 **************************************************************************

 **************************************************************************

                    xk=(  -0.32500,   0.32500,   0.32500  )

     Band symmetry, C_3v (3m)   point group:

     e(  1 -  1) =     -4.44095  eV     1   --> A_1  L_1       
     e(  2 -  2) =      1.00430  eV     1   --> A_1  L_1       
     e(  3 -  4) =      5.22929  eV     2   --> E    L_3       
     e(  5 -  5) =      7.99875  eV     1   --> A_1  L_1       
     e(  6 -  7) =      9.72869  eV     2   --> E    L_3       
     e(  8 -  8) =     14.05095  eV     1   --> A_1  L_1       

 **************************************************************************

 **************************************************************************

                    xk=(  -0.33750,   0.33750,   0.33750  )

     Band symmetry, C_3v (3m)   point group:

     e(  1 -  1) =     -4.34736  eV     1   --> A_1  L_1       
     e(  2 -  2) =      0.80830  eV     1   --> A_1  L_1       
     e(  3 -  4) =      5.19938  eV     2   --> E    L_3       
     e(  5 -  5) =      7.96524  eV     1   --> A_1  L_1       
     e(  6 -  7) =      9.71488  eV     2   --> E    L_3       
     e(  8 -  8) =     14.09708  eV     1   --> A_1  L_1       

 **************************************************************************

 **************************************************************************

                    xk=(  -0.35000,   0.35000,   0.35000  )

     Band symmetry, C_3v (3m)   point group:

     e(  1 -  1) =     -4.25257  eV     1   --> A_1  L_1       
     e(  2 -  2) =      0.61841  eV     1   --> A_1  L_1       
     e(  3 -  4) =      5.17165  eV     2   --> E    L_3       
     e(  5 -  5) =      7.93403  eV     1   --> A_1  L_1       
     e(  6 -  7) =      9.69900  eV     2   --> E    L_3       
     e(  8 -  8) =     14.11512  eV     1   --> A_1  L_1       

 **************************************************************************

 **************************************************************************

                    xk=(  -0.36250,   0.36250,   0.36250  )

     Band symmetry, C_3v (3m)   point group:

     e(  1 -  1) =     -4.15716  eV     1   --> A_1  L_1       
     e(  2 -  2) =      0.43527  eV     1   --> A_1  L_1       
     e(  3 -  4) =      5.14606  eV     2   --> E    L_3       
     e(  5 -  5) =      7.90513  eV     1   --> A_1  L_1       
     e(  6 -  7) =      9.68179  eV     2   --> E    L_3       
     e(  8 -  8) =     14.11396  eV     1   --> A_1  L_1       

 **************************************************************************

 **************************************************************************

                    xk=(  -0.37500,   0.37500,   0.37500  )

     Band symmetry, C_3v (3m)   point group:

     e(  1 -  1) =     -4.06187  eV     1   --> A_1  L_1       
     e(  2 -  2) =      0.25966  eV     1   --> A_1  L_1       
     e(  3 -  4) =      5.12263  eV     2   --> E    L_3       
     e(  5 -  5) =      7.87859  eV     1   --> A_1  L_1       
     e(  6 -  7) =      9.66386  eV     2   --> E    L_3       
     e(  8 -  8) =     14.10104  eV     1   --> A_1  L_1       

 **************************************************************************

 **************************************************************************

                    xk=(  -0.38750,   0.38750,   0.38750  )

     Band symmetry, C_3v (3m)   point group:

     e(  1 -  1) =     -3.96755  eV     1   --> A_1  L_1       
     e(  2 -  2) =      0.09252  eV     1   --> A_1  L_1       
     e(  3 -  4) =      5.10141  eV     2   --> E    L_3       
     e(  5 -  5) =      7.85449  eV     1   --> A_1  L_1       
     e(  6 -  7) =      9.64600  eV     2   --> E    L_3       
     e(  8 -  8) =     14.08169  eV     1   --> A_1  L_1       

 **************************************************************************

 **************************************************************************

                    xk=(  -0.40000,   0.40000,   0.40000  )

     Band symmetry, C_3v (3m)   point group:

     e(  1 -  1) =     -3.87529  eV     1   --> A_1  L_1       
     e(  2 -  2) =     -0.06501  eV     1   --> A_1  L_1       
     e(  3 -  4) =      5.08239  eV     2   --> E    L_3       
     e(  5 -  5) =      7.83284  eV     1   --> A_1  L_1       
     e(  6 -  7) =      9.62870  eV     2   --> E    L_3       
     e(  8 -  8) =     14.05947  eV     1   --> A_1  L_1       

 **************************************************************************

 **************************************************************************

                    xk=(  -0.41250,   0.41250,   0.41250  )

     Band symmetry, C_3v (3m)   point group:

     e(  1 -  1) =     -3.78643  eV     1   --> A_1  L_1       
     e(  2 -  2) =     -0.21157  eV     1   --> A_1  L_1       
     e(  3 -  4) =      5.06560  eV     2   --> E    L_3       
     e(  5 -  5) =      7.81374  eV     1   --> A_1  L_1       
     e(  6 -  7) =      9.61241  eV     2   --> E    L_3       
     e(  8 -  8) =     14.03674  eV     1   --> A_1  L_1       

 **************************************************************************

 **************************************************************************

                    xk=(  -0.42500,   0.42500,   0.42500  )

     Band symmetry, C_3v (3m)   point group:

     e(  1 -  1) =     -3.70256  eV     1   --> A_1  L_1       
     e(  2 -  2) =     -0.34551  eV     1   --> A_1  L_1       
     e(  3 -  4) =      5.05103  eV     2   --> E    L_3       
     e(  5 -  5) =      7.79708  eV     1   --> A_1  L_1       
     e(  6 -  7) =      9.59753  eV     2   --> E    L_3       
     e(  8 -  8) =     14.01500  eV     1   --> A_1  L_1       

 **************************************************************************

 **************************************************************************

                    xk=(  -0.43750,   0.43750,   0.43750  )

     Band symmetry, C_3v (3m)   point group:

     e(  1 -  1) =     -3.62559  eV     1   --> A_1  L_1       
     e(  2 -  2) =     -0.46489  eV     1   --> A_1  L_1       
     e(  3 -  4) =      5.03869  eV     2   --> E    L_3       
     e(  5 -  5) =      7.78295  eV     1   --> A_1  L_1       
     e(  6 -  7) =      9.58441  eV     2   --> E    L_3       
     e(  8 -  8) =     13.99536  eV     1   --> A_1  L_1       

 **************************************************************************

 **************************************************************************

                    xk=(  -0.45000,   0.45000,   0.45000  )

     Band symmetry, C_3v (3m)   point group:

     e(  1 -  1) =     -3.55774  eV     1   --> A_1  L_1       
     e(  2 -  2) =     -0.56750  eV     1   --> A_1  L_1       
     e(  3 -  4) =      5.02860  eV     2   --> E    L_3       
     e(  5 -  5) =      7.77137  eV     1   --> A_1  L_1       
     e(  6 -  7) =      9.57331  eV     2   --> E    L_3       
     e(  8 -  8) =     13.97852  eV     1   --> A_1  L_1       

 **************************************************************************

 **************************************************************************

                    xk=(  -0.46250,   0.46250,   0.46250  )

     Band symmetry, C_3v (3m)   point group:

     e(  1 -  1) =     -3.50136  eV     1   --> A_1  L_1       
     e(  2 -  2) =     -0.65090  eV     1   --> A_1  L_1       
     e(  3 -  4) =      5.02075  eV     2   --> E    L_3       
     e(  5 -  5) =      7.76236  eV     1   --> A_1  L_1       
     e(  6 -  7) =      9.56448  eV     2   --> E    L_3       
     e(  8 -  8) =     13.96500  eV     1   --> A_1  L_1       

 **************************************************************************

 **************************************************************************

                    xk=(  -0.47500,   0.47500,   0.47500  )

     Band symmetry, C_3v (3m)   point group:

     e(  1 -  1) =     -3.45888  eV     1   --> A_1  L_1       
     e(  2 -  2) =     -0.71270  eV     1   --> A_1  L_1       
     e(  3 -  4) =      5.01514  eV     2   --> E    L_3       
     e(  5 -  5) =      7.75591  eV     1   --> A_1  L_1       
     e(  6 -  7) =      9.55804  eV     2   --> E    L_3       
     e(  8 -  8) =     13.95516  eV     1   --> A_1  L_1       

 **************************************************************************

 **************************************************************************

                    xk=(  -0.48750,   0.48750,   0.48750  )

     Band symmetry, C_3v (3m)   point group:

     e(  1 -  1) =     -3.43241  eV     1   --> A_1  L_1       
     e(  2 -  2) =     -0.75077  eV     1   --> A_1  L_1       
     e(  3 -  4) =      5.01177  eV     2   --> E    L_3       
     e(  5 -  5) =      7.75204  eV     1   --> A_1  L_1       
     e(  6 -  7) =      9.55413  eV     2   --> E    L_3       
     e(  8 -  8) =     13.94916  eV     1   --> A_1  L_1       

 **************************************************************************

 **************************************************************************

                    xk=(  -0.50000,   0.50000,   0.50000  )

     zone border point and non-symmorphic group 
     symmetry decomposition not available

 **************************************************************************

     BANDS        :      1.39s CPU      1.49s WALL


   This run was terminated on:  14:13:25   1Nov2025            

=------------------------------------------------------------------------------=
   JOB DONE.
=------------------------------------------------------------------------------=
