
     Program PWSCF v.7.4.1 starts on  1Nov2025 at 14:13:16 

     This program is part of the open-source Quantum ESPRESSO suite
     for quantum simulation of materials; please cite
         "P. Giannozzi et al., J. Phys.:Condens. Matter 21 395502 (2009);
         "P. Giannozzi et al., J. Phys.:Condens. Matter 29 465901 (2017);
         "P. Giannozzi et al., J. Chem. Phys. 152 154105 (2020);
          URL http://www.quantum-espresso.org", 
     in publications or presentations arising from this work. More details at
     http://www.quantum-espresso.org/quote

     Parallel version (MPI), running on     2 processors

     MPI processes distributed on     1 nodes
     0 MiB available memory on the printing compute node when the environment starts

     Reading input from scf.in

     Current dimensions of program PWSCF are:
     Max number of different atomic species (ntypx) = 10
     Max number of k-points (npk) =  40000
     Max angular momentum in pseudopotentials (lmaxx) =  4

     R & G space division:  proc/nbgrp/npool/nimage =       2
     Subspace diagonalization in iterative solution of the eigenvalue problem:
     a serial algorithm will be used


     Parallelization info
     --------------------
     sticks:   dense  smooth     PW     G-vecs:    dense   smooth      PW
     Min         429     216     75                 8432     2980     569
     Max         430     217     76                 8433     2981     570
     Sum         859     433    151                16865     5961    1139

     Using Slab Decomposition



     bravais-lattice index     =            2
     lattice parameter (alat)  =      10.2600  a.u.
     unit-cell volume          =     270.0114 (a.u.)^3
     number of atoms/cell      =            2
     number of atomic types    =            1
     number of electrons       =         8.00
     number of Kohn-Sham states=            8
     kinetic-energy cutoff     =      30.0000  Ry
     charge density cutoff     =     240.0000  Ry
     scf convergence threshold =      1.0E-08
     mixing beta               =       0.7000
     number of iterations used =            8  plain     mixing
     Exchange-correlation= PBE
                           (   1   4   3   4   0   0   0)

     celldm(1)=  10.260000  celldm(2)=   0.000000  celldm(3)=   0.000000
     celldm(4)=   0.000000  celldm(5)=   0.000000  celldm(6)=   0.000000

     crystal axes: (cart. coord. in units of alat)
               a(1) = (  -0.500000   0.000000   0.500000 )  
               a(2) = (   0.000000   0.500000   0.500000 )  
               a(3) = (  -0.500000   0.500000   0.000000 )  

     reciprocal axes: (cart. coord. in units 2 pi/alat)
               b(1) = ( -1.000000 -1.000000  1.000000 )  
               b(2) = (  1.000000  1.000000  1.000000 )  
               b(3) = ( -1.000000  1.000000 -1.000000 )  


     PseudoPot. # 1 for Si read from file:
     /Users/pollob/qe_macm4_build/cases/common/pp/Si.pbe-n-rrkjus_psl.1.0.0.UPF
     MD5 check sum: fa25574f73a70a4139f2adfbefec430c
     Pseudo is Ultrasoft + core correction, Zval =  4.0
     Generated using &quot;atomic&quot; code by A. Dal Corso  v.6.3
     Using radial grid of 1141 points,  6 beta functions with: 
                l(1) =   0
                l(2) =   0
                l(3) =   1
                l(4) =   1
                l(5) =   2
                l(6) =   2
     Q(r) pseudized with 0 coefficients 


     atomic species   valence    mass     pseudopotential
     Si                4.00    28.08500     Si( 1.00)

     48 Sym. Ops., with inversion, found (24 have fractional translation)



   Cartesian axes

     site n.     atom                  positions (alat units)
         1        Si     tau(   1) = (   0.0000000   0.0000000   0.0000000  )
         2        Si     tau(   2) = (  -0.2500000   0.2500000   0.2500000  )

     number of k points=    47  Methfessel-Paxton smearing, width (Ry)=  0.0200
                       cart. coord. in units 2pi/alat
        k(    1) = (   0.0000000   0.0000000   0.0000000), wk =   0.0020000
        k(    2) = (  -0.1000000   0.1000000  -0.1000000), wk =   0.0160000
        k(    3) = (  -0.2000000   0.2000000  -0.2000000), wk =   0.0160000
        k(    4) = (  -0.3000000   0.3000000  -0.3000000), wk =   0.0160000
        k(    5) = (  -0.4000000   0.4000000  -0.4000000), wk =   0.0160000
        k(    6) = (   0.5000000  -0.5000000   0.5000000), wk =   0.0080000
        k(    7) = (   0.0000000   0.2000000   0.0000000), wk =   0.0120000
        k(    8) = (  -0.1000000   0.3000000  -0.1000000), wk =   0.0480000
        k(    9) = (  -0.2000000   0.4000000  -0.2000000), wk =   0.0480000
        k(   10) = (  -0.3000000   0.5000000  -0.3000000), wk =   0.0480000
        k(   11) = (   0.6000000  -0.4000000   0.6000000), wk =   0.0480000
        k(   12) = (   0.5000000  -0.3000000   0.5000000), wk =   0.0480000
        k(   13) = (   0.4000000  -0.2000000   0.4000000), wk =   0.0480000
        k(   14) = (   0.3000000  -0.1000000   0.3000000), wk =   0.0480000
        k(   15) = (   0.2000000   0.0000000   0.2000000), wk =   0.0240000
        k(   16) = (   0.0000000   0.4000000   0.0000000), wk =   0.0120000
        k(   17) = (  -0.1000000   0.5000000  -0.1000000), wk =   0.0480000
        k(   18) = (  -0.2000000   0.6000000  -0.2000000), wk =   0.0480000
        k(   19) = (   0.7000000  -0.3000000   0.7000000), wk =   0.0480000
        k(   20) = (   0.6000000  -0.2000000   0.6000000), wk =   0.0480000
        k(   21) = (   0.5000000  -0.1000000   0.5000000), wk =   0.0480000
        k(   22) = (   0.4000000   0.0000000   0.4000000), wk =   0.0240000
        k(   23) = (   0.0000000   0.6000000   0.0000000), wk =   0.0120000
        k(   24) = (  -0.1000000   0.7000000  -0.1000000), wk =   0.0480000
        k(   25) = (   0.8000000  -0.2000000   0.8000000), wk =   0.0480000
        k(   26) = (   0.7000000  -0.1000000   0.7000000), wk =   0.0480000
        k(   27) = (   0.6000000  -0.0000000   0.6000000), wk =   0.0240000
        k(   28) = (   0.0000000   0.8000000   0.0000000), wk =   0.0120000
        k(   29) = (   0.9000000  -0.1000000   0.9000000), wk =   0.0480000
        k(   30) = (   0.8000000   0.0000000   0.8000000), wk =   0.0240000
        k(   31) = (   0.0000000  -1.0000000   0.0000000), wk =   0.0060000
        k(   32) = (  -0.2000000   0.4000000   0.0000000), wk =   0.0480000
        k(   33) = (  -0.3000000   0.5000000  -0.1000000), wk =   0.0960000
        k(   34) = (   0.6000000  -0.4000000   0.8000000), wk =   0.0960000
        k(   35) = (   0.5000000  -0.3000000   0.7000000), wk =   0.0480000
        k(   36) = (  -0.2000000   0.6000000   0.0000000), wk =   0.0480000
        k(   37) = (   0.7000000  -0.3000000   0.9000000), wk =   0.0960000
        k(   38) = (   0.6000000  -0.2000000   0.8000000), wk =   0.0960000
        k(   39) = (   0.5000000  -0.1000000   0.7000000), wk =   0.0960000
        k(   40) = (   0.4000000   0.0000000   0.6000000), wk =   0.0480000
        k(   41) = (   0.8000000  -0.2000000   1.0000000), wk =   0.0480000
        k(   42) = (   0.7000000  -0.1000000   0.9000000), wk =   0.0960000
        k(   43) = (   0.6000000   0.0000000   0.8000000), wk =   0.0480000
        k(   44) = (  -0.2000000  -1.0000000   0.0000000), wk =   0.0240000
        k(   45) = (   0.6000000  -0.2000000   1.0000000), wk =   0.0480000
        k(   46) = (   0.5000000  -0.1000000   0.9000000), wk =   0.0480000
        k(   47) = (  -0.4000000  -1.0000000   0.0000000), wk =   0.0240000

     Dense  grid:    16865 G-vectors     FFT dimensions: (  36,  36,  36)

     Smooth grid:     5961 G-vectors     FFT dimensions: (  32,  32,  32)

     Estimated max dynamical RAM per process >      32.90 MB

     Estimated total dynamical RAM >      65.80 MB

     Initial potential from superposition of free atoms

     starting charge       7.9989, renormalised to       8.0000
     Starting wfcs are    8 randomized atomic wfcs

     total cpu time spent up to now is        0.2 secs

     Self-consistent Calculation

     iteration #  1     ecut=    30.00 Ry     beta= 0.70
     Davidson diagonalization with overlap
     ethr =  1.00E-02,  avg # of iterations =  4.0

     Threshold (ethr) on eigenvalues was too large:
     Diagonalizing with lowered threshold

     Davidson diagonalization with overlap
     ethr =  6.47E-04,  avg # of iterations =  1.8

     total cpu time spent up to now is        0.5 secs

     total energy              =     -22.83702810 Ry
     estimated scf accuracy    <       0.05565723 Ry

     iteration #  2     ecut=    30.00 Ry     beta= 0.70
     Davidson diagonalization with overlap
     ethr =  6.96E-04,  avg # of iterations =  1.0

     total cpu time spent up to now is        0.7 secs

     total energy              =     -22.83936224 Ry
     estimated scf accuracy    <       0.00219549 Ry

     iteration #  3     ecut=    30.00 Ry     beta= 0.70
     Davidson diagonalization with overlap
     ethr =  2.74E-05,  avg # of iterations =  4.7

     total cpu time spent up to now is        0.9 secs

     total energy              =     -22.83949925 Ry
     estimated scf accuracy    <       0.00004854 Ry

     iteration #  4     ecut=    30.00 Ry     beta= 0.70
     Davidson diagonalization with overlap
     ethr =  6.07E-07,  avg # of iterations =  3.9

     total cpu time spent up to now is        1.1 secs

     total energy              =     -22.83950751 Ry
     estimated scf accuracy    <       0.00000011 Ry

     iteration #  5     ecut=    30.00 Ry     beta= 0.70
     Davidson diagonalization with overlap
     ethr =  1.33E-09,  avg # of iterations =  3.7

     total cpu time spent up to now is        1.3 secs

     End of self-consistent calculation

          k = 0.0000 0.0000 0.0000 (   725 PWs)   bands (ev):

    -5.7562   6.2111   6.2111   6.2111   8.7742   8.7742   8.7742   9.5791

          k =-0.1000 0.1000-0.1000 (   737 PWs)   bands (ev):

    -5.6253   5.0648   6.0122   6.0122   8.7860   9.0669   9.0669  10.5024

          k =-0.2000 0.2000-0.2000 (   751 PWs)   bands (ev):

    -5.2386   3.2001   5.6306   5.6306   8.4329   9.5757   9.5757  12.2666

          k =-0.3000 0.3000-0.3000 (   757 PWs)   bands (ev):

    -4.6229   1.4122   5.2950   5.2950   8.0719   9.7463   9.7463  13.8502

          k =-0.4000 0.4000-0.4000 (   763 PWs)   bands (ev):

    -3.8755  -0.0652   5.0822   5.0822   7.8326   9.6286   9.6286  14.0590

          k = 0.5000-0.5000 0.5000 (   754 PWs)   bands (ev):

    -3.4236  -0.7638   5.0105   5.0105   7.7505   9.5527   9.5527  13.9467

          k = 0.0000 0.2000 0.0000 (   737 PWs)   bands (ev):

    -5.5813   5.2727   5.6335   5.6335   8.3957   9.5663   9.5663  10.4054

          k =-0.1000 0.3000-0.1000 (   752 PWs)   bands (ev):

    -5.2787   3.7581   5.1976   5.3696   8.4560   9.6234  10.2214  11.2033

          k =-0.2000 0.4000-0.2000 (   752 PWs)   bands (ev):

    -4.7349   1.9957   4.8781   4.9357   8.5906   9.6027  10.5023  11.5407

          k =-0.3000 0.5000-0.3000 (   750 PWs)   bands (ev):

    -4.0105   0.4209   4.5235   4.7305   8.4487   9.5604  10.3224  12.6085

          k = 0.6000-0.4000 0.6000 (   755 PWs)   bands (ev):

    -3.3691  -0.6174   4.2326   4.7635   8.3631   9.5282  10.0546  14.0198

          k = 0.5000-0.3000 0.5000 (   755 PWs)   bands (ev):

    -3.5366  -0.3683   4.1039   4.9636   8.4258   9.6597   9.8991  14.2761

          k = 0.4000-0.2000 0.4000 (   754 PWs)   bands (ev):

    -4.2661   0.9153   4.1637   5.2990   8.6312   9.8289   9.9110  13.2354

          k = 0.3000-0.1000 0.3000 (   757 PWs)   bands (ev):

    -4.9424   2.5664   4.4390   5.7060   8.9408   9.5844   9.9240  12.1834

          k = 0.2000 0.0000 0.2000 (   759 PWs)   bands (ev):

    -5.4086   4.1791   5.0488   6.0340   9.1337   9.1962   9.3266  11.4154

          k = 0.0000 0.4000 0.0000 (   745 PWs)   bands (ev):

    -5.0605   3.5867   4.7206   4.7206   7.6733  10.1038  11.1083  11.1083

          k =-0.1000 0.5000-0.1000 (   746 PWs)   bands (ev):

    -4.5945   2.3384   4.2131   4.3719   7.7715   9.6689  11.3716  11.7007

          k =-0.2000 0.6000-0.2000 (   752 PWs)   bands (ev):

    -3.9188   0.8994   3.5844   4.2121   7.9871  10.3021  11.1497  11.6515

          k = 0.7000-0.3000 0.7000 (   747 PWs)   bands (ev):

    -3.1871  -0.2864   3.0741   4.2561   8.0529  10.9184  11.3203  11.8646

          k = 0.6000-0.2000 0.6000 (   747 PWs)   bands (ev):

    -3.0340  -0.4951   2.7750   4.4948   8.2703  10.8216  11.0164  13.7864

          k = 0.5000-0.1000 0.5000 (   751 PWs)   bands (ev):

    -3.6884   0.4931   2.7540   4.8928   8.6698  10.7449  10.8284  12.9324

          k = 0.4000 0.0000 0.4000 (   746 PWs)   bands (ev):

    -4.4068   1.7328   3.2071   5.3642   9.1062  10.2060  10.5274  11.9572

          k = 0.0000 0.6000 0.0000 (   745 PWs)   bands (ev):

    -4.2063   1.7934   3.9785   3.9785   7.0734   8.6282  12.8680  12.8680

          k =-0.1000 0.7000-0.1000 (   752 PWs)   bands (ev):

    -3.5932   0.7868   3.3516   3.7734   7.2618   8.4583  13.1713  13.2874

          k = 0.8000-0.2000 0.8000 (   756 PWs)   bands (ev):

    -2.8424  -0.2202   2.5219   3.7800   7.4411   9.5954  12.9924  13.0332

          k = 0.7000-0.1000 0.7000 (   741 PWs)   bands (ev):

    -2.4226  -0.6967   1.9678   3.9959   7.6751  11.4014  12.6325  12.8357

          k = 0.6000-0.0000 0.6000 (   752 PWs)   bands (ev):

    -2.9615  -0.1066   1.9417   4.3928   8.1211  11.9642  12.2672  13.0668

          k = 0.0000 0.8000 0.0000 (   753 PWs)   bands (ev):

    -3.0428   0.0299   3.5130   3.5130   6.7923   7.5235  14.7273  14.7274

          k = 0.9000-0.1000 0.9000 (   745 PWs)   bands (ev):

    -2.3134  -0.8111   2.9265   3.4644   7.0278   7.7868  14.9703  15.0723

          k = 0.8000 0.0000 0.8000 (   746 PWs)   bands (ev):

    -1.8370  -1.2319   2.1424   3.6319   7.2415   9.3663  14.3129  14.9451

          k = 0.0000-1.0000 0.0000 (   740 PWs)   bands (ev):

    -1.6101  -1.6101   3.3553   3.3553   6.9219   6.9219  16.3201  16.3203

          k =-0.2000 0.4000 0.0000 (   752 PWs)   bands (ev):

    -4.8951   2.8353   4.1275   5.2384   8.5607   9.9458  10.8174  10.8810

          k =-0.3000 0.5000-0.1000 (   758 PWs)   bands (ev):

    -4.2833   1.4249   3.5387   4.8625   8.9136   9.8288  10.9321  11.3393

          k = 0.6000-0.4000 0.8000 (   752 PWs)   bands (ev):

    -3.5360   0.0607   3.3075   4.5117   8.9685   9.4989  11.2738  12.2733

          k = 0.5000-0.3000 0.7000 (   746 PWs)   bands (ev):

    -3.0765  -0.6177   3.2479   4.3736   8.9980   9.3124  11.2327  14.0774

          k =-0.2000 0.6000 0.0000 (   750 PWs)   bands (ev):

    -4.0565   1.4367   3.4001   4.1229   7.9899   9.2748  11.4198  12.7574

          k = 0.7000-0.3000 0.9000 (   750 PWs)   bands (ev):

    -3.3358   0.3340   2.7812   3.7936   8.3726   9.9731  11.0410  13.1528

          k = 0.6000-0.2000 0.8000 (   737 PWs)   bands (ev):

    -2.6851  -0.5297   2.3726   3.7380   8.5552  10.5842  11.7286  13.0842

          k = 0.5000-0.1000 0.7000 (   749 PWs)   bands (ev):

    -2.8868  -0.2701   2.2216   3.9783   8.8984  10.3275  12.1665  12.9464

          k = 0.4000 0.0000 0.6000 (   756 PWs)   bands (ev):

    -3.6229   0.6801   2.5221   4.4191   9.3956   9.8741  10.9325  12.4766

          k = 0.8000-0.2000 1.0000 (   750 PWs)   bands (ev):

    -2.9244  -0.0558   2.9887   3.3153   7.6972   8.2884  12.9714  14.7142

          k = 0.7000-0.1000 0.9000 (   743 PWs)   bands (ev):

    -2.1855  -0.8309   2.2861   3.2245   8.0492   9.4965  12.5678  14.3549

          k = 0.6000 0.0000 0.8000 (   740 PWs)   bands (ev):

    -2.1910  -0.8043   1.8697   3.4945   8.3779  11.3283  12.1716  12.4981

          k =-0.2000-1.0000 0.0000 (   746 PWs)   bands (ev):

    -1.5569  -1.5569   2.9458   2.9458   7.7759   7.7759  14.7100  14.7100

          k = 0.6000-0.2000 1.0000 (   745 PWs)   bands (ev):

    -2.6032  -0.3539   2.2274   3.2153   9.6098   9.9862  10.6484  14.0054

          k = 0.5000-0.1000 0.9000 (   740 PWs)   bands (ev):

    -2.0917  -0.8635   2.0695   2.9638   9.8859  10.2039  11.6168  12.0575

          k =-0.4000-1.0000 0.0000 (   746 PWs)   bands (ev):

    -1.4631  -1.4631   2.4318   2.4318   9.6462   9.6462  12.1426  12.1426

     the Fermi energy is     6.4893 ev

!    total energy              =     -22.83950777 Ry
     estimated scf accuracy    <          7.3E-09 Ry
     smearing contrib. (-TS)   =       0.00009538 Ry
     internal energy E=F+TS    =     -22.83960315 Ry

     The total energy is F=E-TS. E is the sum of the following terms:
     one-electron contribution =       5.17089728 Ry
     hartree contribution      =       1.10031085 Ry
     xc contribution           =     -12.30988170 Ry
     ewald contribution        =     -16.80092958 Ry

     convergence has been achieved in   5 iterations

     Writing all to output data dir ./tmp_kmesh_10/kmesh_10.save/ :
     XML data file, charge density, pseudopotentials, collected wavefunctions

     init_run     :      0.12s CPU      0.13s WALL (       1 calls)
     electrons    :      1.05s CPU      1.09s WALL (       1 calls)

     Called by init_run:
     wfcinit      :      0.05s CPU      0.05s WALL (       1 calls)
     potinit      :      0.01s CPU      0.01s WALL (       1 calls)
     hinit0       :      0.05s CPU      0.05s WALL (       1 calls)

     Called by electrons:
     c_bands      :      0.81s CPU      0.83s WALL (       6 calls)
     sum_band     :      0.19s CPU      0.20s WALL (       6 calls)
     v_of_rho     :      0.02s CPU      0.02s WALL (       6 calls)
     newd         :      0.05s CPU      0.05s WALL (       6 calls)
     mix_rho      :      0.00s CPU      0.00s WALL (       6 calls)

     Called by c_bands:
     init_us_2    :      0.02s CPU      0.02s WALL (     611 calls)
     cegterg      :      0.76s CPU      0.78s WALL (     282 calls)

     Called by *egterg:
     cdiaghg      :      0.03s CPU      0.03s WALL (    1135 calls)
     h_psi        :      0.66s CPU      0.67s WALL (    1229 calls)
     s_psi        :      0.02s CPU      0.03s WALL (    1229 calls)
     g_psi        :      0.00s CPU      0.00s WALL (     900 calls)

     Called by h_psi:
     h_psi:calbec :      0.03s CPU      0.03s WALL (    1229 calls)
     vloc_psi     :      0.60s CPU      0.61s WALL (    1229 calls)
     add_vuspsi   :      0.03s CPU      0.03s WALL (    1229 calls)

     General routines
     calbec       :      0.04s CPU      0.04s WALL (    1511 calls)
     fft          :      0.01s CPU      0.01s WALL (      77 calls)
     ffts         :      0.00s CPU      0.00s WALL (      12 calls)
     fftw         :      0.61s CPU      0.62s WALL (   15364 calls)
     interpolate  :      0.00s CPU      0.00s WALL (       6 calls)

     Parallel routines

     PWSCF        :      1.22s CPU      1.27s WALL


   This run was terminated on:  14:13:18   1Nov2025            

=------------------------------------------------------------------------------=
   JOB DONE.
=------------------------------------------------------------------------------=
Note: The following floating-point exceptions are signalling: IEEE_UNDERFLOW_FLAG
Note: The following floating-point exceptions are signalling: IEEE_INVALID_FLAG IEEE_DIVIDE_BY_ZERO IEEE_UNDERFLOW_FLAG
