
     Program BANDS v.7.4.1 starts on  1Nov2025 at 14:12: 9 

     This program is part of the open-source Quantum ESPRESSO suite
     for quantum simulation of materials; please cite
         "P. Giannozzi et al., J. Phys.:Condens. Matter 21 395502 (2009);
         "P. Giannozzi et al., J. Phys.:Condens. Matter 29 465901 (2017);
         "P. Giannozzi et al., J. Chem. Phys. 152 154105 (2020);
          URL http://www.quantum-espresso.org", 
     in publications or presentations arising from this work. More details at
     http://www.quantum-espresso.org/quote

     Parallel version (MPI), running on     2 processors

     MPI processes distributed on     1 nodes
     R & G space division:  proc/nbgrp/npool/nimage =       2
     0 MiB available memory on the printing compute node when the environment starts


     Reading xml data from directory:

     ./tmp_cutoff_40/cutoff_40.save/

     IMPORTANT: XC functional enforced from input :
     Exchange-correlation= PBE
                           (   1   4   3   4   0   0   0)
     Any further DFT definition will be discarded
     Please, verify this is what you really want


     Parallelization info
     --------------------
     sticks:   dense  smooth     PW     G-vecs:    dense   smooth      PW
     Min         579     291     93                13113     4628     795
     Max         580     292     94                13116     4629     796
     Sum        1159     583    187                26229     9257    1591

     Using Slab Decomposition

     Reading collected, re-writing distributed wavefunctions
     high-symmetry point:  0.0000 0.0000 0.0000   x coordinate   0.0000
     high-symmetry point: -1.0000 0.0000 0.0000   x coordinate   1.0000
     high-symmetry point: -1.0000 0.5000 0.0000   x coordinate   1.5000
     high-symmetry point: -0.7500 0.7500 0.0000   x coordinate   1.8536
     high-symmetry point:  0.0000 0.0000 0.0000   x coordinate   2.9142
     high-symmetry point: -0.5000 0.5000 0.5000   x coordinate   3.7802

     Plottable bands (eV) written to file silicon.bands.dat.gnu
     Bands written to file silicon.bands.dat

 **************************************************************************

                    xk=(   0.00000,   0.00000,   0.00000  )

     point group O_h (m-3m) 
     there are 10 classes
     the character table:

       E     8C3   3C2   6C4   6C2'  i     8S6   3s_h  6S4   6s_d 
A_1g   1.00  1.00  1.00  1.00  1.00  1.00  1.00  1.00  1.00  1.00
A_2g   1.00  1.00  1.00 -1.00 -1.00  1.00  1.00  1.00 -1.00 -1.00
E_g    2.00 -1.00  2.00  0.00  0.00  2.00 -1.00  2.00  0.00  0.00
T_1g   3.00  0.00 -1.00  1.00 -1.00  3.00  0.00 -1.00  1.00 -1.00
T_2g   3.00  0.00 -1.00 -1.00  1.00  3.00  0.00 -1.00 -1.00  1.00
A_1u   1.00  1.00  1.00  1.00  1.00 -1.00 -1.00 -1.00 -1.00 -1.00
A_2u   1.00  1.00  1.00 -1.00 -1.00 -1.00 -1.00 -1.00  1.00  1.00
E_u    2.00 -1.00  2.00  0.00  0.00 -2.00  1.00 -2.00  0.00  0.00
T_1u   3.00  0.00 -1.00  1.00 -1.00 -3.00  0.00  1.00 -1.00  1.00
T_2u   3.00  0.00 -1.00 -1.00  1.00 -3.00  0.00  1.00  1.00 -1.00

     the symmetry operations in each class and the name of the first element:

     E        1
                                                                 
     8C3     17   19   20   18   24   21   22   23
                                                                 
     3C2      2    4    3
                                                                 
     6C4      7    8   15   16   12   11
                                                                 
     6C2'     5    6   14   13   10    9
                                                                 
     i       25
                                                                 
     8S6     41   43   44   42   48   45   46   47
                                                                 
     3s_h    26   28   27
                                                                 
     6S4     31   32   39   40   36   35
                                                                 
     6s_d    29   30   38   37   34   33
                                                                 

     Band symmetry, O_h (m-3m)  point group:

     e(  1 -  1) =     -5.74975  eV     1   --> A_1g G_1   G_1+
     e(  2 -  4) =      6.21869  eV     3   --> T_2g G_25' G_5+
     e(  5 -  7) =      8.77871  eV     3   --> T_1u G_15  G_4-
     e(  8 -  8) =      9.58775  eV     1   --> A_2u G_2'  G_2-

 **************************************************************************

 **************************************************************************

                    xk=(  -0.02500,   0.00000,   0.00000  )

     point group C_4v (4mm) 
     there are  5 classes
     the character table:

       E     2C4   C2    2s_v  2s_d 
A_1    1.00  1.00  1.00  1.00  1.00
A_2    1.00  1.00  1.00 -1.00 -1.00
B_1    1.00 -1.00  1.00  1.00 -1.00
B_2    1.00 -1.00  1.00 -1.00  1.00
E      2.00  0.00 -2.00  0.00  0.00

     the symmetry operations in each class and the name of the first element:

     E        1
                                                                 
     2C4      3    4
                                                                 
     C2       2
                                                                 
     2s_v     5    6
                                                                 
     2s_d     7    8
                                                                 

     Band symmetry, C_4v (4mm)  point group:

     e(  1 -  1) =     -5.74703  eV     1   --> A_1  G_1 D_1   
     e(  2 -  2) =      6.19976  eV     1   --> B_2  G_4 D_2'  
     e(  3 -  4) =      6.20669  eV     2   --> E    G_5 D_5   
     e(  5 -  5) =      8.77188  eV     1   --> A_1  G_1 D_1   
     e(  6 -  7) =      8.79408  eV     2   --> E    G_5 D_5   
     e(  8 -  8) =      9.60630  eV     1   --> B_2  G_4 D_2'  

 **************************************************************************

 **************************************************************************

                    xk=(  -0.05000,   0.00000,   0.00000  )

     Band symmetry, C_4v (4mm)  point group:

     e(  1 -  1) =     -5.73882  eV     1   --> A_1  G_1 D_1   
     e(  2 -  2) =      6.14427  eV     1   --> B_2  G_4 D_2'  
     e(  3 -  4) =      6.17157  eV     2   --> E    G_5 D_5   
     e(  5 -  5) =      8.75160  eV     1   --> A_1  G_1 D_1   
     e(  6 -  7) =      8.83933  eV     2   --> E    G_5 D_5   
     e(  8 -  8) =      9.66050  eV     1   --> B_2  G_4 D_2'  

 **************************************************************************

 **************************************************************************

                    xk=(  -0.07500,   0.00000,   0.00000  )

     Band symmetry, C_4v (4mm)  point group:

     e(  1 -  1) =     -5.72514  eV     1   --> A_1  G_1 D_1   
     e(  2 -  2) =      6.05568  eV     1   --> B_2  G_4 D_2'  
     e(  3 -  4) =      6.11569  eV     2   --> E    G_5 D_5   
     e(  5 -  5) =      8.71849  eV     1   --> A_1  G_1 D_1   
     e(  6 -  7) =      8.91206  eV     2   --> E    G_5 D_5   
     e(  8 -  8) =      9.74627  eV     1   --> B_2  G_4 D_2'  

 **************************************************************************

 **************************************************************************

                    xk=(  -0.10000,   0.00000,   0.00000  )

     Band symmetry, C_4v (4mm)  point group:

     e(  1 -  1) =     -5.70598  eV     1   --> A_1  G_1 D_1   
     e(  2 -  2) =      5.93872  eV     1   --> B_2  G_4 D_2'  
     e(  3 -  4) =      6.04233  eV     2   --> E    G_5 D_5   
     e(  5 -  5) =      8.67349  eV     1   --> A_1  G_1 D_1   
     e(  6 -  7) =      9.00898  eV     2   --> E    G_5 D_5   
     e(  8 -  8) =      9.85780  eV     1   --> B_2  G_4 D_2'  

 **************************************************************************

 **************************************************************************

                    xk=(  -0.12500,   0.00000,   0.00000  )

     Band symmetry, C_4v (4mm)  point group:

     e(  1 -  1) =     -5.68137  eV     1   --> A_1  G_1 D_1   
     e(  2 -  2) =      5.79840  eV     1   --> B_2  G_4 D_2'  
     e(  3 -  4) =      5.95502  eV     2   --> E    G_5 D_5   
     e(  5 -  5) =      8.61780  eV     1   --> A_1  G_1 D_1   
     e(  6 -  7) =      9.12654  eV     2   --> E    G_5 D_5   
     e(  8 -  8) =      9.98825  eV     1   --> B_2  G_4 D_2'  

 **************************************************************************

 **************************************************************************

                    xk=(  -0.15000,   0.00000,   0.00000  )

     Band symmetry, C_4v (4mm)  point group:

     e(  1 -  1) =     -5.65129  eV     1   --> A_1  G_1 D_1   
     e(  2 -  2) =      5.63937  eV     1   --> B_2  G_4 D_2'  
     e(  3 -  4) =      5.85709  eV     2   --> E    G_5 D_5   
     e(  5 -  5) =      8.55279  eV     1   --> A_1  G_1 D_1   
     e(  6 -  7) =      9.26137  eV     2   --> E    G_5 D_5   
     e(  8 -  8) =     10.13019  eV     1   --> B_2  G_4 D_2'  

 **************************************************************************

 **************************************************************************

                    xk=(  -0.17500,   0.00000,   0.00000  )

     Band symmetry, C_4v (4mm)  point group:

     e(  1 -  1) =     -5.61577  eV     1   --> A_1  G_1 D_1   
     e(  2 -  2) =      5.46559  eV     1   --> B_2  G_4 D_2'  
     e(  3 -  4) =      5.75143  eV     2   --> E    G_5 D_5   
     e(  5 -  5) =      8.47990  eV     1   --> A_1  G_1 D_1   
     e(  6 -  7) =      9.41053  eV     2   --> E    G_5 D_5   
     e(  8 -  8) =     10.27530  eV     1   --> B_2  G_4 D_2'  

 **************************************************************************

 **************************************************************************

                    xk=(  -0.20000,   0.00000,   0.00000  )

     Band symmetry, C_4v (4mm)  point group:

     e(  1 -  1) =     -5.57483  eV     1   --> A_1  G_1 D_1   
     e(  2 -  2) =      5.28028  eV     1   --> B_2  G_4 D_2'  
     e(  3 -  4) =      5.64044  eV     2   --> E    G_5 D_5   
     e(  5 -  5) =      8.40056  eV     1   --> A_1  G_1 D_1   
     e(  6 -  7) =      9.57157  eV     2   --> E    G_5 D_5   
     e(  8 -  8) =     10.41376  eV     1   --> B_2  G_4 D_2'  

 **************************************************************************

 **************************************************************************

                    xk=(  -0.22500,   0.00000,   0.00000  )

     Band symmetry, C_4v (4mm)  point group:

     e(  1 -  1) =     -5.52846  eV     1   --> A_1  G_1 D_1   
     e(  2 -  2) =      5.08597  eV     1   --> B_2  G_4 D_2'  
     e(  3 -  4) =      5.52606  eV     2   --> E    G_5 D_5   
     e(  5 -  5) =      8.31617  eV     1   --> A_1  G_1 D_1   
     e(  6 -  7) =      9.74251  eV     2   --> E    G_5 D_5   
     e(  8 -  8) =     10.53335  eV     1   --> B_2  G_4 D_2'  

 **************************************************************************

 **************************************************************************

                    xk=(  -0.25000,   0.00000,   0.00000  )

     Band symmetry, C_4v (4mm)  point group:

     e(  1 -  1) =     -5.47670  eV     1   --> A_1  G_1 D_1   
     e(  2 -  2) =      4.88463  eV     1   --> B_2  G_4 D_2'  
     e(  3 -  4) =      5.40983  eV     2   --> E    G_5 D_5   
     e(  5 -  5) =      8.22801  eV     1   --> A_1  G_1 D_1   
     e(  6 -  7) =      9.92173  eV     2   --> E    G_5 D_5   
     e(  8 -  8) =     10.61918  eV     1   --> B_2  G_4 D_2'  

 **************************************************************************

 **************************************************************************

                    xk=(  -0.27500,   0.00000,   0.00000  )

     Band symmetry, C_4v (4mm)  point group:

     e(  1 -  1) =     -5.41956  eV     1   --> A_1  G_1 D_1   
     e(  2 -  2) =      4.67780  eV     1   --> B_2  G_4 D_2'  
     e(  3 -  4) =      5.29297  eV     2   --> E    G_5 D_5   
     e(  5 -  5) =      8.13727  eV     1   --> A_1  G_1 D_1   
     e(  6 -  7) =     10.10796  eV     2   --> E    G_5 D_5   
     e(  8 -  8) =     10.65620  eV     1   --> B_2  G_4 D_2'  

 **************************************************************************

 **************************************************************************

                    xk=(  -0.30000,   0.00000,   0.00000  )

     Band symmetry, C_4v (4mm)  point group:

     e(  1 -  1) =     -5.35706  eV     1   --> A_1  G_1 D_1   
     e(  2 -  2) =      4.46664  eV     1   --> B_2  G_4 D_2'  
     e(  3 -  4) =      5.17645  eV     2   --> E    G_5 D_5   
     e(  5 -  5) =      8.04503  eV     1   --> A_1  G_1 D_1   
     e(  6 -  7) =     10.30016  eV     2   --> E    G_5 D_5   
     e(  8 -  8) =     10.63517  eV     1   --> B_2  G_4 D_2'  

 **************************************************************************

 **************************************************************************

                    xk=(  -0.32500,   0.00000,   0.00000  )

     Band symmetry, C_4v (4mm)  point group:

     e(  1 -  1) =     -5.28922  eV     1   --> A_1  G_1 D_1   
     e(  2 -  2) =      4.25207  eV     1   --> B_2  G_4 D_2'  
     e(  3 -  4) =      5.06105  eV     2   --> E    G_5 D_5   
     e(  5 -  5) =      7.95223  eV     1   --> A_1  G_1 D_1   
     e(  6 -  7) =     10.49750  eV     2   --> E    G_5 D_5   
     e(  8 -  8) =     10.55803  eV     1   --> B_2  G_4 D_2'  

 **************************************************************************

 **************************************************************************

                    xk=(  -0.35000,   0.00000,   0.00000  )

     Band symmetry, C_4v (4mm)  point group:

     e(  1 -  1) =     -5.21607  eV     1   --> A_1  G_1 D_1   
     e(  2 -  2) =      4.03480  eV     1   --> B_2  G_4 D_2'  
     e(  3 -  4) =      4.94740  eV     2   --> E    G_5 D_5   
     e(  5 -  5) =      7.85973  eV     1   --> A_1  G_1 D_1   
     e(  6 -  6) =     10.43589  eV     1   --> B_2  G_4 D_2'  
     e(  7 -  8) =     10.69929  eV     2   --> E    G_5 D_5   

 **************************************************************************

 **************************************************************************

                    xk=(  -0.37500,   0.00000,   0.00000  )

     Band symmetry, C_4v (4mm)  point group:

     e(  1 -  1) =     -5.13764  eV     1   --> A_1  G_1 D_1   
     e(  2 -  2) =      3.81541  eV     1   --> B_2  G_4 D_2'  
     e(  3 -  4) =      4.83600  eV     2   --> E    G_5 D_5   
     e(  5 -  5) =      7.76827  eV     1   --> A_1  G_1 D_1   
     e(  6 -  6) =     10.28241  eV     1   --> B_2  G_4 D_2'  
     e(  7 -  8) =     10.90496  eV     2   --> E    G_5 D_5   

 **************************************************************************

 **************************************************************************

                    xk=(  -0.40000,   0.00000,   0.00000  )

     Band symmetry, C_4v (4mm)  point group:

     e(  1 -  1) =     -5.05394  eV     1   --> A_1  G_1 D_1   
     e(  2 -  2) =      3.59435  eV     1   --> B_2  G_4 D_2'  
     e(  3 -  4) =      4.72726  eV     2   --> E    G_5 D_5   
     e(  5 -  5) =      7.67851  eV     1   --> A_1  G_1 D_1   
     e(  6 -  6) =     10.10917  eV     1   --> B_2  G_4 D_2'  
     e(  7 -  8) =     11.11406  eV     2   --> E    G_5 D_5   

 **************************************************************************

 **************************************************************************

                    xk=(  -0.42500,   0.00000,   0.00000  )

     Band symmetry, C_4v (4mm)  point group:

     e(  1 -  1) =     -4.96502  eV     1   --> A_1  G_1 D_1   
     e(  2 -  2) =      3.37199  eV     1   --> B_2  G_4 D_2'  
     e(  3 -  4) =      4.62154  eV     2   --> E    G_5 D_5   
     e(  5 -  5) =      7.59104  eV     1   --> A_1  G_1 D_1   
     e(  6 -  6) =      9.92462  eV     1   --> B_2  G_4 D_2'  
     e(  7 -  8) =     11.32618  eV     2   --> E    G_5 D_5   

 **************************************************************************

 **************************************************************************

                    xk=(  -0.45000,   0.00000,   0.00000  )

     Band symmetry, C_4v (4mm)  point group:

     e(  1 -  1) =     -4.87092  eV     1   --> A_1  G_1 D_1   
     e(  2 -  2) =      3.14864  eV     1   --> B_2  G_4 D_2'  
     e(  3 -  4) =      4.51911  eV     2   --> E    G_5 D_5   
     e(  5 -  5) =      7.50635  eV     1   --> A_1  G_1 D_1   
     e(  6 -  6) =      9.73453  eV     1   --> B_2  G_4 D_2'  
     e(  7 -  8) =     11.54100  eV     2   --> E    G_5 D_5   

 **************************************************************************

 **************************************************************************

                    xk=(  -0.47500,   0.00000,   0.00000  )

     Band symmetry, C_4v (4mm)  point group:

     e(  1 -  1) =     -4.77166  eV     1   --> A_1  G_1 D_1   
     e(  2 -  2) =      2.92456  eV     1   --> B_2  G_4 D_2'  
     e(  3 -  4) =      4.42021  eV     2   --> E    G_5 D_5   
     e(  5 -  5) =      7.42489  eV     1   --> A_1  G_1 D_1   
     e(  6 -  6) =      9.54287  eV     1   --> B_2  G_4 D_2'  
     e(  7 -  8) =     11.75825  eV     2   --> E    G_5 D_5   

 **************************************************************************

 **************************************************************************

                    xk=(  -0.50000,   0.00000,   0.00000  )

     Band symmetry, C_4v (4mm)  point group:

     e(  1 -  1) =     -4.66731  eV     1   --> A_1  G_1 D_1   
     e(  2 -  2) =      2.69997  eV     1   --> B_2  G_4 D_2'  
     e(  3 -  4) =      4.32505  eV     2   --> E    G_5 D_5   
     e(  5 -  5) =      7.34708  eV     1   --> A_1  G_1 D_1   
     e(  6 -  6) =      9.35236  eV     1   --> B_2  G_4 D_2'  
     e(  7 -  8) =     11.97769  eV     2   --> E    G_5 D_5   

 **************************************************************************

 **************************************************************************

                    xk=(  -0.52500,   0.00000,   0.00000  )

     Band symmetry, C_4v (4mm)  point group:

     e(  1 -  1) =     -4.55788  eV     1   --> A_1  G_1 D_1   
     e(  2 -  2) =      2.47513  eV     1   --> B_2  G_4 D_2'  
     e(  3 -  4) =      4.23380  eV     2   --> E    G_5 D_5   
     e(  5 -  5) =      7.27327  eV     1   --> A_1  G_1 D_1   
     e(  6 -  6) =      9.16493  eV     1   --> B_2  G_4 D_2'  
     e(  7 -  8) =     12.19913  eV     2   --> E    G_5 D_5   

 **************************************************************************

 **************************************************************************

                    xk=(  -0.55000,   0.00000,   0.00000  )

     Band symmetry, C_4v (4mm)  point group:

     e(  1 -  1) =     -4.44342  eV     1   --> A_1  G_1 D_1   
     e(  2 -  2) =      2.25021  eV     1   --> B_2  G_4 D_2'  
     e(  3 -  4) =      4.14662  eV     2   --> E    G_5 D_5   
     e(  5 -  5) =      7.20376  eV     1   --> A_1  G_1 D_1   
     e(  6 -  6) =      8.98194  eV     1   --> B_2  G_4 D_2'  
     e(  7 -  8) =     12.42243  eV     2   --> E    G_5 D_5   

 **************************************************************************

 **************************************************************************

                    xk=(  -0.57500,   0.00000,   0.00000  )

     Band symmetry, C_4v (4mm)  point group:

     e(  1 -  1) =     -4.32401  eV     1   --> A_1  G_1 D_1   
     e(  2 -  2) =      2.02539  eV     1   --> B_2  G_4 D_2'  
     e(  3 -  4) =      4.06362  eV     2   --> E    G_5 D_5   
     e(  5 -  5) =      7.13885  eV     1   --> A_1  G_1 D_1   
     e(  6 -  6) =      8.80441  eV     1   --> B_2  G_4 D_2'  
     e(  7 -  8) =     12.64743  eV     2   --> E    G_5 D_5   

 **************************************************************************

 **************************************************************************

                    xk=(  -0.60000,   0.00000,   0.00000  )

     Band symmetry, C_4v (4mm)  point group:

     e(  1 -  1) =     -4.19967  eV     1   --> A_1  G_1 D_1   
     e(  2 -  2) =      1.80087  eV     1   --> B_2  G_4 D_2'  
     e(  3 -  4) =      3.98491  eV     2   --> E    G_5 D_5   
     e(  5 -  5) =      7.07880  eV     1   --> A_1  G_1 D_1   
     e(  6 -  6) =      8.63308  eV     1   --> B_2  G_4 D_2'  
     e(  7 -  8) =     12.87403  eV     2   --> E    G_5 D_5   

 **************************************************************************

 **************************************************************************

                    xk=(  -0.62500,   0.00000,   0.00000  )

     Band symmetry, C_4v (4mm)  point group:

     e(  1 -  1) =     -4.07049  eV     1   --> A_1  G_1 D_1   
     e(  2 -  2) =      1.57681  eV     1   --> B_2  G_4 D_2'  
     e(  3 -  4) =      3.91060  eV     2   --> E    G_5 D_5   
     e(  5 -  5) =      7.02383  eV     1   --> A_1  G_1 D_1   
     e(  6 -  6) =      8.46850  eV     1   --> B_2  G_4 D_2'  
     e(  7 -  8) =     13.10213  eV     2   --> E    G_5 D_5   

 **************************************************************************

 **************************************************************************

                    xk=(  -0.65000,   0.00000,   0.00000  )

     Band symmetry, C_4v (4mm)  point group:

     e(  1 -  1) =     -3.93650  eV     1   --> A_1  G_1 D_1   
     e(  2 -  2) =      1.35342  eV     1   --> B_2  G_4 D_2'  
     e(  3 -  4) =      3.84077  eV     2   --> E    G_5 D_5   
     e(  5 -  5) =      6.97417  eV     1   --> A_1  G_1 D_1   
     e(  6 -  6) =      8.31107  eV     1   --> B_2  G_4 D_2'  
     e(  7 -  8) =     13.33167  eV     2   --> E    G_5 D_5   

 **************************************************************************

 **************************************************************************

                    xk=(  -0.67500,   0.00000,   0.00000  )

     Band symmetry, C_4v (4mm)  point group:

     e(  1 -  1) =     -3.79780  eV     1   --> A_1  G_1 D_1   
     e(  2 -  2) =      1.13087  eV     1   --> B_2  G_4 D_2'  
     e(  3 -  4) =      3.77549  eV     2   --> E    G_5 D_5   
     e(  5 -  5) =      6.93000  eV     1   --> A_1  G_1 D_1   
     e(  6 -  6) =      8.16110  eV     1   --> B_2  G_4 D_2'  
     e(  7 -  8) =     13.56254  eV     2   --> E    G_5 D_5   

 **************************************************************************

 **************************************************************************

                    xk=(  -0.70000,   0.00000,   0.00000  )

     Band symmetry, C_4v (4mm)  point group:

     e(  1 -  1) =     -3.65445  eV     1   --> A_1  G_1 D_1   
     e(  2 -  2) =      0.90934  eV     1   --> B_2  G_4 D_2'  
     e(  3 -  4) =      3.71483  eV     2   --> E    G_5 D_5   
     e(  5 -  5) =      6.89152  eV     1   --> A_1  G_1 D_1   
     e(  6 -  6) =      8.01881  eV     1   --> B_2  G_4 D_2'  
     e(  7 -  8) =     13.79469  eV     2   --> E    G_5 D_5   

 **************************************************************************

 **************************************************************************

                    xk=(  -0.72500,   0.00000,   0.00000  )

     Band symmetry, C_4v (4mm)  point group:

     e(  1 -  1) =     -3.50651  eV     1   --> A_1  G_1 D_1   
     e(  2 -  2) =      0.68902  eV     1   --> B_2  G_4 D_2'  
     e(  3 -  4) =      3.65884  eV     2   --> E    G_5 D_5   
     e(  5 -  5) =      6.85889  eV     1   --> A_1  G_1 D_1   
     e(  6 -  6) =      7.88434  eV     1   --> B_2  G_4 D_2'  
     e(  7 -  8) =     14.02803  eV     2   --> E    G_5 D_5   

 **************************************************************************

 **************************************************************************

                    xk=(  -0.75000,   0.00000,   0.00000  )

     Band symmetry, C_4v (4mm)  point group:

     e(  1 -  1) =     -3.35406  eV     1   --> A_1  G_1 D_1   
     e(  2 -  2) =      0.47009  eV     1   --> B_2  G_4 D_2'  
     e(  3 -  4) =      3.60758  eV     2   --> E    G_5 D_5   
     e(  5 -  5) =      6.83227  eV     1   --> A_1  G_1 D_1   
     e(  6 -  6) =      7.75779  eV     1   --> B_2  G_4 D_2'  
     e(  7 -  8) =     14.26242  eV     2   --> E    G_5 D_5   

 **************************************************************************

 **************************************************************************

                    xk=(  -0.77500,   0.00000,   0.00000  )

     Band symmetry, C_4v (4mm)  point group:

     e(  1 -  1) =     -3.19720  eV     1   --> A_1  G_1 D_1   
     e(  2 -  2) =      0.25272  eV     1   --> B_2  G_4 D_2'  
     e(  3 -  4) =      3.56107  eV     2   --> E    G_5 D_5   
     e(  5 -  5) =      6.81181  eV     1   --> A_1  G_1 D_1   
     e(  6 -  6) =      7.63921  eV     1   --> B_2  G_4 D_2'  
     e(  7 -  8) =     14.49770  eV     2   --> E    G_5 D_5   

 **************************************************************************

 **************************************************************************

                    xk=(  -0.80000,   0.00000,   0.00000  )

     Band symmetry, C_4v (4mm)  point group:

     e(  1 -  1) =     -3.03601  eV     1   --> A_1  G_1 D_1   
     e(  2 -  2) =      0.03712  eV     1   --> B_2  G_4 D_2'  
     e(  3 -  4) =      3.51938  eV     2   --> E    G_5 D_5   
     e(  5 -  5) =      6.79767  eV     1   --> A_1  G_1 D_1   
     e(  6 -  6) =      7.52863  eV     1   --> B_2  G_4 D_2'  
     e(  7 -  8) =     14.73363  eV     2   --> E    G_5 D_5   

 **************************************************************************

 **************************************************************************

                    xk=(  -0.82500,   0.00000,   0.00000  )

     Band symmetry, C_4v (4mm)  point group:

     e(  1 -  1) =     -2.87058  eV     1   --> A_1  G_1 D_1   
     e(  2 -  2) =     -0.17653  eV     1   --> B_2  G_4 D_2'  
     e(  3 -  4) =      3.48251  eV     2   --> E    G_5 D_5   
     e(  5 -  5) =      6.78997  eV     1   --> A_1  G_1 D_1   
     e(  6 -  6) =      7.42604  eV     1   --> B_2  G_4 D_2'  
     e(  7 -  8) =     14.96979  eV     2   --> E    G_5 D_5   

 **************************************************************************

 **************************************************************************

                    xk=(  -0.85000,   0.00000,   0.00000  )

     Band symmetry, C_4v (4mm)  point group:

     e(  1 -  1) =     -2.70100  eV     1   --> A_1  G_1 D_1   
     e(  2 -  2) =     -0.38808  eV     1   --> B_2  G_4 D_2'  
     e(  3 -  4) =      3.45051  eV     2   --> E    G_5 D_5   
     e(  5 -  5) =      6.78885  eV     1   --> A_1  G_1 D_1   
     e(  6 -  6) =      7.33140  eV     1   --> B_2  G_4 D_2'  
     e(  7 -  8) =     15.20554  eV     2   --> E    G_5 D_5   

 **************************************************************************

 **************************************************************************

                    xk=(  -0.87500,   0.00000,   0.00000  )

     Band symmetry, C_4v (4mm)  point group:

     e(  1 -  1) =     -2.52740  eV     1   --> A_1  G_1 D_1   
     e(  2 -  2) =     -0.59732  eV     1   --> B_2  G_4 D_2'  
     e(  3 -  4) =      3.42339  eV     2   --> E    G_5 D_5   
     e(  5 -  5) =      6.79443  eV     1   --> A_1  G_1 D_1   
     e(  6 -  6) =      7.24468  eV     1   --> B_2  G_4 D_2'  
     e(  7 -  8) =     15.43972  eV     2   --> E    G_5 D_5   

 **************************************************************************

 **************************************************************************

                    xk=(  -0.90000,   0.00000,   0.00000  )

     Band symmetry, C_4v (4mm)  point group:

     e(  1 -  1) =     -2.34989  eV     1   --> A_1  G_1 D_1   
     e(  2 -  2) =     -0.80408  eV     1   --> B_2  G_4 D_2'  
     e(  3 -  4) =      3.40118  eV     2   --> E    G_5 D_5   
     e(  5 -  5) =      6.80685  eV     1   --> A_1  G_1 D_1   
     e(  6 -  6) =      7.16580  eV     1   --> B_2  G_4 D_2'  
     e(  7 -  8) =     15.67020  eV     2   --> E    G_5 D_5   

 **************************************************************************

 **************************************************************************

                    xk=(  -0.92500,   0.00000,   0.00000  )

     Band symmetry, C_4v (4mm)  point group:

     e(  1 -  1) =     -2.16858  eV     1   --> A_1  G_1 D_1   
     e(  2 -  2) =     -1.00821  eV     1   --> B_2  G_4 D_2'  
     e(  3 -  4) =      3.38389  eV     2   --> E    G_5 D_5   
     e(  5 -  5) =      6.82621  eV     1   --> A_1  G_1 D_1   
     e(  6 -  6) =      7.09470  eV     1   --> B_2  G_4 D_2'  
     e(  7 -  8) =     15.89263  eV     2   --> E    G_5 D_5   

 **************************************************************************

 **************************************************************************

                    xk=(  -0.95000,   0.00000,   0.00000  )

     Band symmetry, C_4v (4mm)  point group:

     e(  1 -  1) =     -1.98358  eV     1   --> A_1  G_1 D_1   
     e(  2 -  2) =     -1.20952  eV     1   --> B_2  G_4 D_2'  
     e(  3 -  4) =      3.37153  eV     2   --> E    G_5 D_5   
     e(  5 -  5) =      6.85265  eV     1   --> A_1  G_1 D_1   
     e(  6 -  6) =      7.03129  eV     1   --> B_2  G_4 D_2'  
     e(  7 -  8) =     16.09708  eV     2   --> E    G_5 D_5   

 **************************************************************************

 **************************************************************************

                    xk=(  -0.97500,   0.00000,   0.00000  )

     Band symmetry, C_4v (4mm)  point group:

     e(  1 -  1) =     -1.79504  eV     1   --> A_1  G_1 D_1   
     e(  2 -  2) =     -1.40786  eV     1   --> B_2  G_4 D_2'  
     e(  3 -  4) =      3.36411  eV     2   --> E    G_5 D_5   
     e(  5 -  5) =      6.88626  eV     1   --> A_1  G_1 D_1   
     e(  6 -  6) =      6.97548  eV     1   --> B_2  G_4 D_2'  
     e(  7 -  8) =     16.25905  eV     2   --> E    G_5 D_5   

 **************************************************************************

 **************************************************************************

                    xk=(  -1.00000,   0.00000,   0.00000  )

     zone border point and non-symmorphic group 
     symmetry decomposition not available

 **************************************************************************

 **************************************************************************

                    xk=(  -1.00000,   0.01250,   0.00000  )

     zone border point and non-symmorphic group 
     symmetry decomposition not available

 **************************************************************************

 **************************************************************************

                    xk=(  -1.00000,   0.02500,   0.00000  )

     zone border point and non-symmorphic group 
     symmetry decomposition not available

 **************************************************************************

 **************************************************************************

                    xk=(  -1.00000,   0.03750,   0.00000  )

     zone border point and non-symmorphic group 
     symmetry decomposition not available

 **************************************************************************

 **************************************************************************

                    xk=(  -1.00000,   0.05000,   0.00000  )

     zone border point and non-symmorphic group 
     symmetry decomposition not available

 **************************************************************************

 **************************************************************************

                    xk=(  -1.00000,   0.06250,   0.00000  )

     zone border point and non-symmorphic group 
     symmetry decomposition not available

 **************************************************************************

 **************************************************************************

                    xk=(  -1.00000,   0.07500,   0.00000  )

     zone border point and non-symmorphic group 
     symmetry decomposition not available

 **************************************************************************

 **************************************************************************

                    xk=(  -1.00000,   0.08750,   0.00000  )

     zone border point and non-symmorphic group 
     symmetry decomposition not available

 **************************************************************************

 **************************************************************************

                    xk=(  -1.00000,   0.10000,   0.00000  )

     zone border point and non-symmorphic group 
     symmetry decomposition not available

 **************************************************************************

 **************************************************************************

                    xk=(  -1.00000,   0.11250,   0.00000  )

     zone border point and non-symmorphic group 
     symmetry decomposition not available

 **************************************************************************

 **************************************************************************

                    xk=(  -1.00000,   0.12500,   0.00000  )

     zone border point and non-symmorphic group 
     symmetry decomposition not available

 **************************************************************************

 **************************************************************************

                    xk=(  -1.00000,   0.13750,   0.00000  )

     zone border point and non-symmorphic group 
     symmetry decomposition not available

 **************************************************************************

 **************************************************************************

                    xk=(  -1.00000,   0.15000,   0.00000  )

     zone border point and non-symmorphic group 
     symmetry decomposition not available

 **************************************************************************

 **************************************************************************

                    xk=(  -1.00000,   0.16250,   0.00000  )

     zone border point and non-symmorphic group 
     symmetry decomposition not available

 **************************************************************************

 **************************************************************************

                    xk=(  -1.00000,   0.17500,   0.00000  )

     zone border point and non-symmorphic group 
     symmetry decomposition not available

 **************************************************************************

 **************************************************************************

                    xk=(  -1.00000,   0.18750,   0.00000  )

     zone border point and non-symmorphic group 
     symmetry decomposition not available

 **************************************************************************

 **************************************************************************

                    xk=(  -1.00000,   0.20000,   0.00000  )

     zone border point and non-symmorphic group 
     symmetry decomposition not available

 **************************************************************************

 **************************************************************************

                    xk=(  -1.00000,   0.21250,   0.00000  )

     zone border point and non-symmorphic group 
     symmetry decomposition not available

 **************************************************************************

 **************************************************************************

                    xk=(  -1.00000,   0.22500,   0.00000  )

     zone border point and non-symmorphic group 
     symmetry decomposition not available

 **************************************************************************

 **************************************************************************

                    xk=(  -1.00000,   0.23750,   0.00000  )

     zone border point and non-symmorphic group 
     symmetry decomposition not available

 **************************************************************************

 **************************************************************************

                    xk=(  -1.00000,   0.25000,   0.00000  )

     zone border point and non-symmorphic group 
     symmetry decomposition not available

 **************************************************************************

 **************************************************************************

                    xk=(  -1.00000,   0.26250,   0.00000  )

     zone border point and non-symmorphic group 
     symmetry decomposition not available

 **************************************************************************

 **************************************************************************

                    xk=(  -1.00000,   0.27500,   0.00000  )

     zone border point and non-symmorphic group 
     symmetry decomposition not available

 **************************************************************************

 **************************************************************************

                    xk=(  -1.00000,   0.28750,   0.00000  )

     zone border point and non-symmorphic group 
     symmetry decomposition not available

 **************************************************************************

 **************************************************************************

                    xk=(  -1.00000,   0.30000,   0.00000  )

     zone border point and non-symmorphic group 
     symmetry decomposition not available

 **************************************************************************

 **************************************************************************

                    xk=(  -1.00000,   0.31250,   0.00000  )

     zone border point and non-symmorphic group 
     symmetry decomposition not available

 **************************************************************************

 **************************************************************************

                    xk=(  -1.00000,   0.32500,   0.00000  )

     zone border point and non-symmorphic group 
     symmetry decomposition not available

 **************************************************************************

 **************************************************************************

                    xk=(  -1.00000,   0.33750,   0.00000  )

     zone border point and non-symmorphic group 
     symmetry decomposition not available

 **************************************************************************

 **************************************************************************

                    xk=(  -1.00000,   0.35000,   0.00000  )

     zone border point and non-symmorphic group 
     symmetry decomposition not available

 **************************************************************************

 **************************************************************************

                    xk=(  -1.00000,   0.36250,   0.00000  )

     zone border point and non-symmorphic group 
     symmetry decomposition not available

 **************************************************************************

 **************************************************************************

                    xk=(  -1.00000,   0.37500,   0.00000  )

     zone border point and non-symmorphic group 
     symmetry decomposition not available

 **************************************************************************

 **************************************************************************

                    xk=(  -1.00000,   0.38750,   0.00000  )

     zone border point and non-symmorphic group 
     symmetry decomposition not available

 **************************************************************************

 **************************************************************************

                    xk=(  -1.00000,   0.40000,   0.00000  )

     zone border point and non-symmorphic group 
     symmetry decomposition not available

 **************************************************************************

 **************************************************************************

                    xk=(  -1.00000,   0.41250,   0.00000  )

     zone border point and non-symmorphic group 
     symmetry decomposition not available

 **************************************************************************

 **************************************************************************

                    xk=(  -1.00000,   0.42500,   0.00000  )

     zone border point and non-symmorphic group 
     symmetry decomposition not available

 **************************************************************************

 **************************************************************************

                    xk=(  -1.00000,   0.43750,   0.00000  )

     zone border point and non-symmorphic group 
     symmetry decomposition not available

 **************************************************************************

 **************************************************************************

                    xk=(  -1.00000,   0.45000,   0.00000  )

     zone border point and non-symmorphic group 
     symmetry decomposition not available

 **************************************************************************

 **************************************************************************

                    xk=(  -1.00000,   0.46250,   0.00000  )

     zone border point and non-symmorphic group 
     symmetry decomposition not available

 **************************************************************************

 **************************************************************************

                    xk=(  -1.00000,   0.47500,   0.00000  )

     zone border point and non-symmorphic group 
     symmetry decomposition not available

 **************************************************************************

 **************************************************************************

                    xk=(  -1.00000,   0.48750,   0.00000  )

     zone border point and non-symmorphic group 
     symmetry decomposition not available

 **************************************************************************

 **************************************************************************

                    xk=(  -1.00000,   0.50000,   0.00000  )

     zone border point and non-symmorphic group 
     symmetry decomposition not available

 **************************************************************************

 **************************************************************************

                    xk=(  -0.99375,   0.50625,   0.00000  )

     point group C_s (m)    
     there are  2 classes
     the character table:

       E     s    
A'     1.00  1.00
A''    1.00 -1.00

     the symmetry operations in each class and the name of the first element:

     E        1
                                                                 
     s        2
                                                                 

     Band symmetry, C_s (m)     point group:

     e(  1 -  1) =     -1.46714  eV     1   --> A'             
     e(  2 -  2) =     -1.41060  eV     1   --> A''            
     e(  3 -  3) =      2.33874  eV     1   --> A'             
     e(  4 -  4) =      2.38281  eV     1   --> A''            
     e(  5 -  5) =     10.45552  eV     1   --> A''            
     e(  6 -  6) =     10.51050  eV     1   --> A'             
     e(  7 -  7) =     11.21341  eV     1   --> A''            
     e(  8 -  8) =     11.24950  eV     1   --> A'             

 **************************************************************************

 **************************************************************************

                    xk=(  -0.98750,   0.51250,   0.00000  )

     Band symmetry, C_s (m)     point group:

     e(  1 -  1) =     -1.49483  eV     1   --> A'             
     e(  2 -  2) =     -1.38362  eV     1   --> A''            
     e(  3 -  3) =      2.31778  eV     1   --> A'             
     e(  4 -  4) =      2.40744  eV     1   --> A''            
     e(  5 -  5) =     10.39402  eV     1   --> A''            
     e(  6 -  6) =     10.52494  eV     1   --> A'             
     e(  7 -  7) =     11.23174  eV     1   --> A''            
     e(  8 -  8) =     11.28237  eV     1   --> A'             

 **************************************************************************

 **************************************************************************

                    xk=(  -0.98125,   0.51875,   0.00000  )

     Band symmetry, C_s (m)     point group:

     e(  1 -  1) =     -1.52181  eV     1   --> A'             
     e(  2 -  2) =     -1.35783  eV     1   --> A''            
     e(  3 -  3) =      2.29729  eV     1   --> A'             
     e(  4 -  4) =      2.43404  eV     1   --> A''            
     e(  5 -  5) =     10.31362  eV     1   --> A''            
     e(  6 -  6) =     10.53503  eV     1   --> A'             
     e(  7 -  7) =     11.27070  eV     1   --> A''            
     e(  8 -  8) =     11.32066  eV     1   --> A'             

 **************************************************************************

 **************************************************************************

                    xk=(  -0.97500,   0.52500,   0.00000  )

     Band symmetry, C_s (m)     point group:

     e(  1 -  1) =     -1.54809  eV     1   --> A'             
     e(  2 -  2) =     -1.33323  eV     1   --> A''            
     e(  3 -  3) =      2.27727  eV     1   --> A'             
     e(  4 -  4) =      2.46257  eV     1   --> A''            
     e(  5 -  5) =     10.22085  eV     1   --> A''            
     e(  6 -  6) =     10.54125  eV     1   --> A'             
     e(  7 -  7) =     11.32379  eV     1   --> A''            
     e(  8 -  8) =     11.36388  eV     1   --> A'             

 **************************************************************************

 **************************************************************************

                    xk=(  -0.96875,   0.53125,   0.00000  )

     Band symmetry, C_s (m)     point group:

     e(  1 -  1) =     -1.57366  eV     1   --> A'             
     e(  2 -  2) =     -1.30980  eV     1   --> A''            
     e(  3 -  3) =      2.25772  eV     1   --> A'             
     e(  4 -  4) =      2.49299  eV     1   --> A''            
     e(  5 -  5) =     10.12041  eV     1   --> A''            
     e(  6 -  6) =     10.54413  eV     1   --> A'             
     e(  7 -  7) =     11.38633  eV     1   --> A''            
     e(  8 -  8) =     11.41147  eV     1   --> A'             

 **************************************************************************

 **************************************************************************

                    xk=(  -0.96250,   0.53750,   0.00000  )

     Band symmetry, C_s (m)     point group:

     e(  1 -  1) =     -1.59853  eV     1   --> A'             
     e(  2 -  2) =     -1.28753  eV     1   --> A''            
     e(  3 -  3) =      2.23867  eV     1   --> A'             
     e(  4 -  4) =      2.52524  eV     1   --> A''            
     e(  5 -  5) =     10.01536  eV     1   --> A''            
     e(  6 -  6) =     10.54423  eV     1   --> A'             
     e(  7 -  7) =     11.45531  eV     1   --> A''            
     e(  8 -  8) =     11.46288  eV     1   --> A'             

 **************************************************************************

 **************************************************************************

                    xk=(  -0.95625,   0.54375,   0.00000  )

     Band symmetry, C_s (m)     point group:

     e(  1 -  1) =     -1.62268  eV     1   --> A'             
     e(  2 -  2) =     -1.26641  eV     1   --> A''            
     e(  3 -  3) =      2.22010  eV     1   --> A'             
     e(  4 -  4) =      2.55928  eV     1   --> A''            
     e(  5 -  5) =      9.90762  eV     1   --> A''            
     e(  6 -  6) =     10.54206  eV     1   --> A'             
     e(  7 -  7) =     11.51758  eV     1   --> A'             
     e(  8 -  8) =     11.52885  eV     1   --> A''            

 **************************************************************************

 **************************************************************************

                    xk=(  -0.95000,   0.55000,   0.00000  )

     Band symmetry, C_s (m)     point group:

     e(  1 -  1) =     -1.64612  eV     1   --> A'             
     e(  2 -  2) =     -1.24642  eV     1   --> A''            
     e(  3 -  3) =      2.20204  eV     1   --> A'             
     e(  4 -  4) =      2.59504  eV     1   --> A''            
     e(  5 -  5) =      9.79845  eV     1   --> A''            
     e(  6 -  6) =     10.53806  eV     1   --> A'             
     e(  7 -  7) =     11.57510  eV     1   --> A'             
     e(  8 -  8) =     11.60573  eV     1   --> A''            

 **************************************************************************

 **************************************************************************

                    xk=(  -0.94375,   0.55625,   0.00000  )

     Band symmetry, C_s (m)     point group:

     e(  1 -  1) =     -1.66884  eV     1   --> A'             
     e(  2 -  2) =     -1.22754  eV     1   --> A''            
     e(  3 -  3) =      2.18447  eV     1   --> A'             
     e(  4 -  4) =      2.63246  eV     1   --> A''            
     e(  5 -  5) =      9.68866  eV     1   --> A''            
     e(  6 -  6) =     10.53263  eV     1   --> A'             
     e(  7 -  7) =     11.63506  eV     1   --> A'             
     e(  8 -  8) =     11.68519  eV     1   --> A''            

 **************************************************************************

 **************************************************************************

                    xk=(  -0.93750,   0.56250,   0.00000  )

     Band symmetry, C_s (m)     point group:

     e(  1 -  1) =     -1.69086  eV     1   --> A'             
     e(  2 -  2) =     -1.20974  eV     1   --> A''            
     e(  3 -  3) =      2.16742  eV     1   --> A'             
     e(  4 -  4) =      2.67144  eV     1   --> A''            
     e(  5 -  5) =      9.57882  eV     1   --> A''            
     e(  6 -  6) =     10.52610  eV     1   --> A'             
     e(  7 -  7) =     11.69710  eV     1   --> A'             
     e(  8 -  8) =     11.76670  eV     1   --> A''            

 **************************************************************************

 **************************************************************************

                    xk=(  -0.93125,   0.56875,   0.00000  )

     Band symmetry, C_s (m)     point group:

     e(  1 -  1) =     -1.71216  eV     1   --> A'             
     e(  2 -  2) =     -1.19300  eV     1   --> A''            
     e(  3 -  3) =      2.15088  eV     1   --> A'             
     e(  4 -  4) =      2.71190  eV     1   --> A''            
     e(  5 -  5) =      9.46937  eV     1   --> A''            
     e(  6 -  6) =     10.51872  eV     1   --> A'             
     e(  7 -  7) =     11.76094  eV     1   --> A'             
     e(  8 -  8) =     11.84990  eV     1   --> A''            

 **************************************************************************

 **************************************************************************

                    xk=(  -0.92500,   0.57500,   0.00000  )

     Band symmetry, C_s (m)     point group:

     e(  1 -  1) =     -1.73275  eV     1   --> A'             
     e(  2 -  2) =     -1.17728  eV     1   --> A''            
     e(  3 -  3) =      2.13486  eV     1   --> A'             
     e(  4 -  4) =      2.75375  eV     1   --> A''            
     e(  5 -  5) =      9.36061  eV     1   --> A''            
     e(  6 -  6) =     10.51071  eV     1   --> A'             
     e(  7 -  7) =     11.82634  eV     1   --> A'             
     e(  8 -  8) =     11.93453  eV     1   --> A''            

 **************************************************************************

 **************************************************************************

                    xk=(  -0.91875,   0.58125,   0.00000  )

     Band symmetry, C_s (m)     point group:

     e(  1 -  1) =     -1.75262  eV     1   --> A'             
     e(  2 -  2) =     -1.16255  eV     1   --> A''            
     e(  3 -  3) =      2.11936  eV     1   --> A'             
     e(  4 -  4) =      2.79689  eV     1   --> A''            
     e(  5 -  5) =      9.25279  eV     1   --> A''            
     e(  6 -  6) =     10.50227  eV     1   --> A'             
     e(  7 -  7) =     11.89312  eV     1   --> A'             
     e(  8 -  8) =     12.02040  eV     1   --> A''            

 **************************************************************************

 **************************************************************************

                    xk=(  -0.91250,   0.58750,   0.00000  )

     Band symmetry, C_s (m)     point group:

     e(  1 -  1) =     -1.77178  eV     1   --> A'             
     e(  2 -  2) =     -1.14877  eV     1   --> A''            
     e(  3 -  3) =      2.10440  eV     1   --> A'             
     e(  4 -  4) =      2.84120  eV     1   --> A''            
     e(  5 -  5) =      9.14614  eV     1   --> A''            
     e(  6 -  6) =     10.49354  eV     1   --> A'             
     e(  7 -  7) =     11.96109  eV     1   --> A'             
     e(  8 -  8) =     12.10737  eV     1   --> A''            

 **************************************************************************

 **************************************************************************

                    xk=(  -0.90625,   0.59375,   0.00000  )

     Band symmetry, C_s (m)     point group:

     e(  1 -  1) =     -1.79022  eV     1   --> A'             
     e(  2 -  2) =     -1.13591  eV     1   --> A''            
     e(  3 -  3) =      2.08996  eV     1   --> A'             
     e(  4 -  4) =      2.88656  eV     1   --> A''            
     e(  5 -  5) =      9.04084  eV     1   --> A''            
     e(  6 -  6) =     10.48464  eV     1   --> A'             
     e(  7 -  7) =     12.03012  eV     1   --> A'             
     e(  8 -  8) =     12.19533  eV     1   --> A''            

 **************************************************************************

 **************************************************************************

                    xk=(  -0.90000,   0.60000,   0.00000  )

     Band symmetry, C_s (m)     point group:

     e(  1 -  1) =     -1.80794  eV     1   --> A'             
     e(  2 -  2) =     -1.12393  eV     1   --> A''            
     e(  3 -  3) =      2.07606  eV     1   --> A'             
     e(  4 -  4) =      2.93285  eV     1   --> A''            
     e(  5 -  5) =      8.93707  eV     1   --> A''            
     e(  6 -  6) =     10.47568  eV     1   --> A'             
     e(  7 -  7) =     12.10008  eV     1   --> A'             
     e(  8 -  8) =     12.28418  eV     1   --> A''            

 **************************************************************************

 **************************************************************************

                    xk=(  -0.89375,   0.60625,   0.00000  )

     Band symmetry, C_s (m)     point group:

     e(  1 -  1) =     -1.82495  eV     1   --> A'             
     e(  2 -  2) =     -1.11279  eV     1   --> A''            
     e(  3 -  3) =      2.06270  eV     1   --> A'             
     e(  4 -  4) =      2.97992  eV     1   --> A''            
     e(  5 -  5) =      8.83498  eV     1   --> A''            
     e(  6 -  6) =     10.46673  eV     1   --> A'             
     e(  7 -  7) =     12.17087  eV     1   --> A'             
     e(  8 -  8) =     12.37387  eV     1   --> A''            

 **************************************************************************

 **************************************************************************

                    xk=(  -0.88750,   0.61250,   0.00000  )

     Band symmetry, C_s (m)     point group:

     e(  1 -  1) =     -1.84124  eV     1   --> A'             
     e(  2 -  2) =     -1.10246  eV     1   --> A''            
     e(  3 -  3) =      2.04988  eV     1   --> A'             
     e(  4 -  4) =      3.02763  eV     1   --> A''            
     e(  5 -  5) =      8.73474  eV     1   --> A''            
     e(  6 -  6) =     10.45787  eV     1   --> A'             
     e(  7 -  7) =     12.24240  eV     1   --> A'             
     e(  8 -  8) =     12.46432  eV     1   --> A''            

 **************************************************************************

 **************************************************************************

                    xk=(  -0.88125,   0.61875,   0.00000  )

     Band symmetry, C_s (m)     point group:

     e(  1 -  1) =     -1.85680  eV     1   --> A'             
     e(  2 -  2) =     -1.09289  eV     1   --> A''            
     e(  3 -  3) =      2.03761  eV     1   --> A'             
     e(  4 -  4) =      3.07581  eV     1   --> A''            
     e(  5 -  5) =      8.63652  eV     1   --> A''            
     e(  6 -  6) =     10.44917  eV     1   --> A'             
     e(  7 -  7) =     12.31457  eV     1   --> A'             
     e(  8 -  8) =     12.55550  eV     1   --> A''            

 **************************************************************************

 **************************************************************************

                    xk=(  -0.87500,   0.62500,   0.00000  )

     Band symmetry, C_s (m)     point group:

     e(  1 -  1) =     -1.87165  eV     1   --> A'             
     e(  2 -  2) =     -1.08405  eV     1   --> A''            
     e(  3 -  3) =      2.02589  eV     1   --> A'             
     e(  4 -  4) =      3.12430  eV     1   --> A''            
     e(  5 -  5) =      8.54047  eV     1   --> A''            
     e(  6 -  6) =     10.44066  eV     1   --> A'             
     e(  7 -  7) =     12.38731  eV     1   --> A'             
     e(  8 -  8) =     12.64735  eV     1   --> A''            

 **************************************************************************

 **************************************************************************

                    xk=(  -0.86875,   0.63125,   0.00000  )

     Band symmetry, C_s (m)     point group:

     e(  1 -  1) =     -1.88578  eV     1   --> A'             
     e(  2 -  2) =     -1.07590  eV     1   --> A''            
     e(  3 -  3) =      2.01473  eV     1   --> A'             
     e(  4 -  4) =      3.17291  eV     1   --> A''            
     e(  5 -  5) =      8.44676  eV     1   --> A''            
     e(  6 -  6) =     10.43239  eV     1   --> A'             
     e(  7 -  7) =     12.46055  eV     1   --> A'             
     e(  8 -  8) =     12.73984  eV     1   --> A''            

 **************************************************************************

 **************************************************************************

                    xk=(  -0.86250,   0.63750,   0.00000  )

     Band symmetry, C_s (m)     point group:

     e(  1 -  1) =     -1.89918  eV     1   --> A'             
     e(  2 -  2) =     -1.06840  eV     1   --> A''            
     e(  3 -  3) =      2.00412  eV     1   --> A'             
     e(  4 -  4) =      3.22146  eV     1   --> A''            
     e(  5 -  5) =      8.35559  eV     1   --> A''            
     e(  6 -  6) =     10.42440  eV     1   --> A'             
     e(  7 -  7) =     12.53421  eV     1   --> A'             
     e(  8 -  8) =     12.83293  eV     1   --> A''            

 **************************************************************************

 **************************************************************************

                    xk=(  -0.85625,   0.64375,   0.00000  )

     Band symmetry, C_s (m)     point group:

     e(  1 -  1) =     -1.91186  eV     1   --> A'             
     e(  2 -  2) =     -1.06152  eV     1   --> A''            
     e(  3 -  3) =      1.99407  eV     1   --> A'             
     e(  4 -  4) =      3.26972  eV     1   --> A''            
     e(  5 -  5) =      8.26714  eV     1   --> A''            
     e(  6 -  6) =     10.41672  eV     1   --> A'             
     e(  7 -  7) =     12.60823  eV     1   --> A'             
     e(  8 -  8) =     12.92658  eV     1   --> A''            

 **************************************************************************

 **************************************************************************

                    xk=(  -0.85000,   0.65000,   0.00000  )

     Band symmetry, C_s (m)     point group:

     e(  1 -  1) =     -1.92382  eV     1   --> A'             
     e(  2 -  2) =     -1.05522  eV     1   --> A''            
     e(  3 -  3) =      1.98458  eV     1   --> A'             
     e(  4 -  4) =      3.31749  eV     1   --> A''            
     e(  5 -  5) =      8.18162  eV     1   --> A''            
     e(  6 -  6) =     10.40937  eV     1   --> A'             
     e(  7 -  7) =     12.68253  eV     1   --> A'             
     e(  8 -  8) =     13.02076  eV     1   --> A''            

 **************************************************************************

 **************************************************************************

                    xk=(  -0.84375,   0.65625,   0.00000  )

     Band symmetry, C_s (m)     point group:

     e(  1 -  1) =     -1.93506  eV     1   --> A'             
     e(  2 -  2) =     -1.04948  eV     1   --> A''            
     e(  3 -  3) =      1.97566  eV     1   --> A'             
     e(  4 -  4) =      3.36451  eV     1   --> A''            
     e(  5 -  5) =      8.09924  eV     1   --> A''            
     e(  6 -  6) =     10.40239  eV     1   --> A'             
     e(  7 -  7) =     12.75703  eV     1   --> A'             
     e(  8 -  8) =     13.11544  eV     1   --> A''            

 **************************************************************************

 **************************************************************************

                    xk=(  -0.83750,   0.66250,   0.00000  )

     Band symmetry, C_s (m)     point group:

     e(  1 -  1) =     -1.94557  eV     1   --> A'             
     e(  2 -  2) =     -1.04426  eV     1   --> A''            
     e(  3 -  3) =      1.96730  eV     1   --> A'             
     e(  4 -  4) =      3.41055  eV     1   --> A''            
     e(  5 -  5) =      8.02024  eV     1   --> A''            
     e(  6 -  6) =     10.39578  eV     1   --> A'             
     e(  7 -  7) =     12.83166  eV     1   --> A'             
     e(  8 -  8) =     13.21058  eV     1   --> A''            

 **************************************************************************

 **************************************************************************

                    xk=(  -0.83125,   0.66875,   0.00000  )

     Band symmetry, C_s (m)     point group:

     e(  1 -  1) =     -1.95536  eV     1   --> A'             
     e(  2 -  2) =     -1.03953  eV     1   --> A''            
     e(  3 -  3) =      1.95950  eV     1   --> A'             
     e(  4 -  4) =      3.45533  eV     1   --> A''            
     e(  5 -  5) =      7.94486  eV     1   --> A''            
     e(  6 -  6) =     10.38957  eV     1   --> A'             
     e(  7 -  7) =     12.90631  eV     1   --> A'             
     e(  8 -  8) =     13.30614  eV     1   --> A''            

 **************************************************************************

 **************************************************************************

                    xk=(  -0.82500,   0.67500,   0.00000  )

     Band symmetry, C_s (m)     point group:

     e(  1 -  1) =     -1.96443  eV     1   --> A'             
     e(  2 -  2) =     -1.03526  eV     1   --> A''            
     e(  3 -  3) =      1.95228  eV     1   --> A'             
     e(  4 -  4) =      3.49858  eV     1   --> A''            
     e(  5 -  5) =      7.87337  eV     1   --> A''            
     e(  6 -  6) =     10.38376  eV     1   --> A'             
     e(  7 -  7) =     12.98089  eV     1   --> A'             
     e(  8 -  8) =     13.40208  eV     1   --> A''            

 **************************************************************************

 **************************************************************************

                    xk=(  -0.81875,   0.68125,   0.00000  )

     Band symmetry, C_s (m)     point group:

     e(  1 -  1) =     -1.97277  eV     1   --> A'             
     e(  2 -  2) =     -1.03144  eV     1   --> A''            
     e(  3 -  3) =      1.94563  eV     1   --> A'             
     e(  4 -  4) =      3.54000  eV     1   --> A''            
     e(  5 -  5) =      7.80604  eV     1   --> A''            
     e(  6 -  6) =     10.37839  eV     1   --> A'             
     e(  7 -  7) =     13.05526  eV     1   --> A'             
     e(  8 -  8) =     13.49835  eV     1   --> A''            

 **************************************************************************

 **************************************************************************

                    xk=(  -0.81250,   0.68750,   0.00000  )

     Band symmetry, C_s (m)     point group:

     e(  1 -  1) =     -1.98039  eV     1   --> A'             
     e(  2 -  2) =     -1.02802  eV     1   --> A''            
     e(  3 -  3) =      1.93955  eV     1   --> A'             
     e(  4 -  4) =      3.57928  eV     1   --> A''            
     e(  5 -  5) =      7.74316  eV     1   --> A''            
     e(  6 -  6) =     10.37344  eV     1   --> A'             
     e(  7 -  7) =     13.12925  eV     1   --> A'             
     e(  8 -  8) =     13.59490  eV     1   --> A''            

 **************************************************************************

 **************************************************************************

                    xk=(  -0.80625,   0.69375,   0.00000  )

     Band symmetry, C_s (m)     point group:

     e(  1 -  1) =     -1.98728  eV     1   --> A'             
     e(  2 -  2) =     -1.02500  eV     1   --> A''            
     e(  3 -  3) =      1.93405  eV     1   --> A'             
     e(  4 -  4) =      3.61613  eV     1   --> A''            
     e(  5 -  5) =      7.68502  eV     1   --> A''            
     e(  6 -  6) =     10.36894  eV     1   --> A'             
     e(  7 -  7) =     13.20264  eV     1   --> A'             
     e(  8 -  8) =     13.69165  eV     1   --> A''            

 **************************************************************************

 **************************************************************************

                    xk=(  -0.80000,   0.70000,   0.00000  )

     Band symmetry, C_s (m)     point group:

     e(  1 -  1) =     -1.99345  eV     1   --> A'             
     e(  2 -  2) =     -1.02234  eV     1   --> A''            
     e(  3 -  3) =      1.92913  eV     1   --> A'             
     e(  4 -  4) =      3.65021  eV     1   --> A''            
     e(  5 -  5) =      7.63193  eV     1   --> A''            
     e(  6 -  6) =     10.36490  eV     1   --> A'             
     e(  7 -  7) =     13.27516  eV     1   --> A'             
     e(  8 -  8) =     13.78850  eV     1   --> A''            

 **************************************************************************

 **************************************************************************

                    xk=(  -0.79375,   0.70625,   0.00000  )

     Band symmetry, C_s (m)     point group:

     e(  1 -  1) =     -1.99889  eV     1   --> A'             
     e(  2 -  2) =     -1.02005  eV     1   --> A''            
     e(  3 -  3) =      1.92478  eV     1   --> A'             
     e(  4 -  4) =      3.68121  eV     1   --> A''            
     e(  5 -  5) =      7.58418  eV     1   --> A''            
     e(  6 -  6) =     10.36131  eV     1   --> A'             
     e(  7 -  7) =     13.34638  eV     1   --> A'             
     e(  8 -  8) =     13.88531  eV     1   --> A''            

 **************************************************************************

 **************************************************************************

                    xk=(  -0.78750,   0.71250,   0.00000  )

     Band symmetry, C_s (m)     point group:

     e(  1 -  1) =     -2.00361  eV     1   --> A'             
     e(  2 -  2) =     -1.01809  eV     1   --> A''            
     e(  3 -  3) =      1.92100  eV     1   --> A'             
     e(  4 -  4) =      3.70883  eV     1   --> A''            
     e(  5 -  5) =      7.54207  eV     1   --> A''            
     e(  6 -  6) =     10.35819  eV     1   --> A'             
     e(  7 -  7) =     13.41570  eV     1   --> A'             
     e(  8 -  8) =     13.98188  eV     1   --> A''            

 **************************************************************************

 **************************************************************************

                    xk=(  -0.78125,   0.71875,   0.00000  )

     Band symmetry, C_s (m)     point group:

     e(  1 -  1) =     -2.00760  eV     1   --> A'             
     e(  2 -  2) =     -1.01645  eV     1   --> A''            
     e(  3 -  3) =      1.91781  eV     1   --> A'             
     e(  4 -  4) =      3.73277  eV     1   --> A''            
     e(  5 -  5) =      7.50589  eV     1   --> A''            
     e(  6 -  6) =     10.35554  eV     1   --> A'             
     e(  7 -  7) =     13.48222  eV     1   --> A'             
     e(  8 -  8) =     14.07786  eV     1   --> A''            

 **************************************************************************

 **************************************************************************

                    xk=(  -0.77500,   0.72500,   0.00000  )

     Band symmetry, C_s (m)     point group:

     e(  1 -  1) =     -2.01087  eV     1   --> A'             
     e(  2 -  2) =     -1.01513  eV     1   --> A''            
     e(  3 -  3) =      1.91520  eV     1   --> A'             
     e(  4 -  4) =      3.75277  eV     1   --> A''            
     e(  5 -  5) =      7.47589  eV     1   --> A''            
     e(  6 -  6) =     10.35337  eV     1   --> A'             
     e(  7 -  7) =     13.54452  eV     1   --> A'             
     e(  8 -  8) =     14.17262  eV     1   --> A''            

 **************************************************************************

 **************************************************************************

                    xk=(  -0.76875,   0.73125,   0.00000  )

     Band symmetry, C_s (m)     point group:

     e(  1 -  1) =     -2.01341  eV     1   --> A'             
     e(  2 -  2) =     -1.01411  eV     1   --> A''            
     e(  3 -  3) =      1.91316  eV     1   --> A'             
     e(  4 -  4) =      3.76859  eV     1   --> A''            
     e(  5 -  5) =      7.45230  eV     1   --> A''            
     e(  6 -  6) =     10.35168  eV     1   --> A'             
     e(  7 -  7) =     13.60034  eV     1   --> A'             
     e(  8 -  8) =     14.26486  eV     1   --> A''            

 **************************************************************************

 **************************************************************************

                    xk=(  -0.76250,   0.73750,   0.00000  )

     Band symmetry, C_s (m)     point group:

     e(  1 -  1) =     -2.01522  eV     1   --> A'             
     e(  2 -  2) =     -1.01339  eV     1   --> A''            
     e(  3 -  3) =      1.91171  eV     1   --> A'             
     e(  4 -  4) =      3.78004  eV     1   --> A''            
     e(  5 -  5) =      7.43530  eV     1   --> A''            
     e(  6 -  6) =     10.35047  eV     1   --> A'             
     e(  7 -  7) =     13.64620  eV     1   --> A'             
     e(  8 -  8) =     14.28050  eV     1   --> A'             

 **************************************************************************

 **************************************************************************

                    xk=(  -0.75625,   0.74375,   0.00000  )

     Band symmetry, C_s (m)     point group:

     e(  1 -  1) =     -2.01631  eV     1   --> A'             
     e(  2 -  2) =     -1.01296  eV     1   --> A''            
     e(  3 -  3) =      1.91084  eV     1   --> A'             
     e(  4 -  4) =      3.78697  eV     1   --> A''            
     e(  5 -  5) =      7.42505  eV     1   --> A''            
     e(  6 -  6) =     10.34974  eV     1   --> A'             
     e(  7 -  7) =     13.67723  eV     1   --> A'             
     e(  8 -  8) =     14.24963  eV     1   --> A'             

 **************************************************************************

 **************************************************************************

                    xk=(  -0.75000,   0.75000,   0.00000  )

     point group C_2v (mm2) 
     there are  4 classes
     the character table:

       E     C2    s_v   s_v' 
A_1    1.00  1.00  1.00  1.00
A_2    1.00  1.00 -1.00 -1.00
B_1    1.00 -1.00  1.00 -1.00
B_2    1.00 -1.00 -1.00  1.00

     the symmetry operations in each class and the name of the first element:

     E        1
                                                                 
     C2       2
                                                                 
     s_v      4
                                                                 
     s_v'     3
                                                                 

     Band symmetry, C_2v (mm2)  point group:

     e(  1 -  1) =     -2.01668  eV     1   --> A_1  D_1  S_1  
     e(  2 -  2) =     -1.01282  eV     1   --> B_1  D_3  S_3  
     e(  3 -  3) =      1.91055  eV     1   --> A_1  D_1  S_1  
     e(  4 -  4) =      3.78929  eV     1   --> A_2  D_2  S_2  
     e(  5 -  5) =      7.42162  eV     1   --> B_1  D_3  S_3  
     e(  6 -  6) =     10.34950  eV     1   --> A_1  D_1  S_1  
     e(  7 -  7) =     13.68835  eV     1   --> B_2  D_4  S_4  
     e(  8 -  8) =     14.23857  eV     1   --> A_1  D_1  S_1  

 **************************************************************************

 **************************************************************************

                    xk=(  -0.73125,   0.73125,   0.00000  )

     Band symmetry, C_2v (mm2)  point group:

     e(  1 -  1) =     -2.10565  eV     1   --> A_1  D_1  S_1  
     e(  2 -  2) =     -0.92128  eV     1   --> B_1  D_3  S_3  
     e(  3 -  3) =      1.85408  eV     1   --> A_1  D_1  S_1  
     e(  4 -  4) =      3.85347  eV     1   --> A_2  D_2  S_2  
     e(  5 -  5) =      7.49599  eV     1   --> B_1  D_3  S_3  
     e(  6 -  6) =     10.72958  eV     1   --> A_1  D_1  S_1  
     e(  7 -  7) =     13.45795  eV     1   --> B_2  D_4  S_4  
     e(  8 -  8) =     14.00349  eV     1   --> A_1  D_1  S_1  

 **************************************************************************

 **************************************************************************

                    xk=(  -0.71250,   0.71250,   0.00000  )

     Band symmetry, C_2v (mm2)  point group:

     e(  1 -  1) =     -2.20457  eV     1   --> A_1  D_1  S_1  
     e(  2 -  2) =     -0.82323  eV     1   --> B_1  D_3  S_3  
     e(  3 -  3) =      1.81618  eV     1   --> A_1  D_1  S_1  
     e(  4 -  4) =      3.92153  eV     1   --> A_2  D_2  S_2  
     e(  5 -  5) =      7.57485  eV     1   --> B_1  D_3  S_3  
     e(  6 -  6) =     11.11338  eV     1   --> A_1  D_1  S_1  
     e(  7 -  7) =     13.23141  eV     1   --> B_2  D_4  S_4  
     e(  8 -  8) =     13.77738  eV     1   --> A_1  D_1  S_1  

 **************************************************************************

 **************************************************************************

                    xk=(  -0.69375,   0.69375,   0.00000  )

     Band symmetry, C_2v (mm2)  point group:

     e(  1 -  1) =     -2.31277  eV     1   --> A_1  D_1  S_1  
     e(  2 -  2) =     -0.71868  eV     1   --> B_1  D_3  S_3  
     e(  3 -  3) =      1.79665  eV     1   --> A_1  D_1  S_1  
     e(  4 -  4) =      3.99328  eV     1   --> A_2  D_2  S_2  
     e(  5 -  5) =      7.65798  eV     1   --> B_1  D_3  S_3  
     e(  6 -  6) =     11.49647  eV     1   --> A_1  D_1  S_1  
     e(  7 -  7) =     13.00907  eV     1   --> B_2  D_4  S_4  
     e(  8 -  8) =     13.56400  eV     1   --> A_1  D_1  S_1  

 **************************************************************************

 **************************************************************************

                    xk=(  -0.67500,   0.67500,   0.00000  )

     Band symmetry, C_2v (mm2)  point group:

     e(  1 -  1) =     -2.42927  eV     1   --> A_1  D_1  S_1  
     e(  2 -  2) =     -0.60767  eV     1   --> B_1  D_3  S_3  
     e(  3 -  3) =      1.79491  eV     1   --> A_1  D_1  S_1  
     e(  4 -  4) =      4.06852  eV     1   --> A_2  D_2  S_2  
     e(  5 -  5) =      7.74509  eV     1   --> B_1  D_3  S_3  
     e(  6 -  6) =     11.86890  eV     1   --> A_1  D_1  S_1  
     e(  7 -  7) =     12.79122  eV     1   --> B_2  D_4  S_4  
     e(  8 -  8) =     13.37254  eV     1   --> A_1  D_1  S_1  

 **************************************************************************

 **************************************************************************

                    xk=(  -0.65625,   0.65625,   0.00000  )

     Band symmetry, C_2v (mm2)  point group:

     e(  1 -  1) =     -2.55293  eV     1   --> A_1  D_1  S_1  
     e(  2 -  2) =     -0.49021  eV     1   --> B_1  D_3  S_3  
     e(  3 -  3) =      1.81015  eV     1   --> A_1  D_1  S_1  
     e(  4 -  4) =      4.14703  eV     1   --> A_2  D_2  S_2  
     e(  5 -  5) =      7.83589  eV     1   --> B_1  D_3  S_3  
     e(  6 -  6) =     12.20182  eV     1   --> A_1  D_1  S_1  
     e(  7 -  7) =     12.57810  eV     1   --> B_2  D_4  S_4  
     e(  8 -  8) =     13.23111  eV     1   --> A_1  D_1  S_1  

 **************************************************************************

 **************************************************************************

                    xk=(  -0.63750,   0.63750,   0.00000  )

     Band symmetry, C_2v (mm2)  point group:

     e(  1 -  1) =     -2.68254  eV     1   --> A_1  D_1  S_1  
     e(  2 -  2) =     -0.36633  eV     1   --> B_1  D_3  S_3  
     e(  3 -  3) =      1.84137  eV     1   --> A_1  D_1  S_1  
     e(  4 -  4) =      4.22855  eV     1   --> A_2  D_2  S_2  
     e(  5 -  5) =      7.92999  eV     1   --> B_1  D_3  S_3  
     e(  6 -  6) =     12.36992  eV     1   --> B_2  D_4  S_4  
     e(  7 -  7) =     12.40812  eV     1   --> A_1  D_1  S_1  
     e(  8 -  8) =     13.22586  eV     1   --> A_1  D_1  S_1  

 **************************************************************************

 **************************************************************************

                    xk=(  -0.61875,   0.61875,   0.00000  )

     Band symmetry, C_2v (mm2)  point group:

[...]

 **************************************************************************

                    xk=(  -0.12500,   0.12500,   0.12500  )

     Band symmetry, C_3v (3m)   point group:

     e(  1 -  1) =     -5.54552  eV     1   --> A_1  L_1       
     e(  2 -  2) =      4.61814  eV     1   --> A_1  L_1       
     e(  3 -  4) =      5.92884  eV     2   --> E    L_3       
     e(  5 -  5) =      8.72020  eV     1   --> A_1  L_1       
     e(  6 -  7) =      9.20406  eV     2   --> E    L_3       
     e(  8 -  8) =     10.93342  eV     1   --> A_1  L_1       

 **************************************************************************

 **************************************************************************

                    xk=(  -0.13750,   0.13750,   0.13750  )

     Band symmetry, C_3v (3m)   point group:

     e(  1 -  1) =     -5.50294  eV     1   --> A_1  L_1       
     e(  2 -  2) =      4.38523  eV     1   --> A_1  L_1       
     e(  3 -  4) =      5.88107  eV     2   --> E    L_3       
     e(  5 -  5) =      8.67797  eV     1   --> A_1  L_1       
     e(  6 -  7) =      9.27231  eV     2   --> E    L_3       
     e(  8 -  8) =     11.15325  eV     1   --> A_1  L_1       

 **************************************************************************

 **************************************************************************

                    xk=(  -0.15000,   0.15000,   0.15000  )

     Band symmetry, C_3v (3m)   point group:

     e(  1 -  1) =     -5.45644  eV     1   --> A_1  L_1       
     e(  2 -  2) =      4.15019  eV     1   --> A_1  L_1       
     e(  3 -  4) =      5.83244  eV     2   --> E    L_3       
     e(  5 -  5) =      8.63289  eV     1   --> A_1  L_1       
     e(  6 -  7) =      9.34011  eV     2   --> E    L_3       
     e(  8 -  8) =     11.37613  eV     1   --> A_1  L_1       

 **************************************************************************

 **************************************************************************

                    xk=(  -0.16250,   0.16250,   0.16250  )

     Band symmetry, C_3v (3m)   point group:

     e(  1 -  1) =     -5.40604  eV     1   --> A_1  L_1       
     e(  2 -  2) =      3.91407  eV     1   --> A_1  L_1       
     e(  3 -  4) =      5.78342  eV     2   --> E    L_3       
     e(  5 -  5) =      8.58583  eV     1   --> A_1  L_1       
     e(  6 -  7) =      9.40609  eV     2   --> E    L_3       
     e(  8 -  8) =     11.60069  eV     1   --> A_1  L_1       

 **************************************************************************

 **************************************************************************

                    xk=(  -0.17500,   0.17500,   0.17500  )

     Band symmetry, C_3v (3m)   point group:

     e(  1 -  1) =     -5.35181  eV     1   --> A_1  L_1       
     e(  2 -  2) =      3.67772  eV     1   --> A_1  L_1       
     e(  3 -  4) =      5.73440  eV     2   --> E    L_3       
     e(  5 -  5) =      8.53749  eV     1   --> A_1  L_1       
     e(  6 -  7) =      9.46896  eV     2   --> E    L_3       
     e(  8 -  8) =     11.82589  eV     1   --> A_1  L_1       

 **************************************************************************

 **************************************************************************

                    xk=(  -0.18750,   0.18750,   0.18750  )

     Band symmetry, C_3v (3m)   point group:

     e(  1 -  1) =     -5.29381  eV     1   --> A_1  L_1       
     e(  2 -  2) =      3.44185  eV     1   --> A_1  L_1       
     e(  3 -  4) =      5.68575  eV     2   --> E    L_3       
     e(  5 -  5) =      8.48847  eV     1   --> A_1  L_1       
     e(  6 -  7) =      9.52746  eV     2   --> E    L_3       
     e(  8 -  8) =     12.05083  eV     1   --> A_1  L_1       

 **************************************************************************

 **************************************************************************

                    xk=(  -0.20000,   0.20000,   0.20000  )

     Band symmetry, C_3v (3m)   point group:

     e(  1 -  1) =     -5.23208  eV     1   --> A_1  L_1       
     e(  2 -  2) =      3.20704  eV     1   --> A_1  L_1       
     e(  3 -  4) =      5.63777  eV     2   --> E    L_3       
     e(  5 -  5) =      8.43927  eV     1   --> A_1  L_1       
     e(  6 -  7) =      9.58049  eV     2   --> E    L_3       
     e(  8 -  8) =     12.27475  eV     1   --> A_1  L_1       

 **************************************************************************

 **************************************************************************

                    xk=(  -0.21250,   0.21250,   0.21250  )

     Band symmetry, C_3v (3m)   point group:

     e(  1 -  1) =     -5.16672  eV     1   --> A_1  L_1       
     e(  2 -  2) =      2.97381  eV     1   --> A_1  L_1       
     e(  3 -  4) =      5.59071  eV     2   --> E    L_3       
     e(  5 -  5) =      8.39031  eV     1   --> A_1  L_1       
     e(  6 -  7) =      9.62711  eV     2   --> E    L_3       
     e(  8 -  8) =     12.49686  eV     1   --> A_1  L_1       

 **************************************************************************

 **************************************************************************

                    xk=(  -0.22500,   0.22500,   0.22500  )

     Band symmetry, C_3v (3m)   point group:

     e(  1 -  1) =     -5.09779  eV     1   --> A_1  L_1       
     e(  2 -  2) =      2.74260  eV     1   --> A_1  L_1       
     e(  3 -  4) =      5.54480  eV     2   --> E    L_3       
     e(  5 -  5) =      8.34194  eV     1   --> A_1  L_1       
     e(  6 -  7) =      9.66664  eV     2   --> E    L_3       
     e(  8 -  8) =     12.71626  eV     1   --> A_1  L_1       

 **************************************************************************

 **************************************************************************

                    xk=(  -0.23750,   0.23750,   0.23750  )

     Band symmetry, C_3v (3m)   point group:

     e(  1 -  1) =     -5.02540  eV     1   --> A_1  L_1       
     e(  2 -  2) =      2.51381  eV     1   --> A_1  L_1       
     e(  3 -  4) =      5.50022  eV     2   --> E    L_3       
     e(  5 -  5) =      8.29447  eV     1   --> A_1  L_1       
     e(  6 -  7) =      9.69864  eV     2   --> E    L_3       
     e(  8 -  8) =     12.93180  eV     1   --> A_1  L_1       

 **************************************************************************

 **************************************************************************

                    xk=(  -0.25000,   0.25000,   0.25000  )

     Band symmetry, C_3v (3m)   point group:

     e(  1 -  1) =     -4.94965  eV     1   --> A_1  L_1       
     e(  2 -  2) =      2.28783  eV     1   --> A_1  L_1       
     e(  3 -  4) =      5.45714  eV     2   --> E    L_3       
     e(  5 -  5) =      8.24817  eV     1   --> A_1  L_1       
     e(  6 -  7) =      9.72299  eV     2   --> E    L_3       
     e(  8 -  8) =     13.14186  eV     1   --> A_1  L_1       

 **************************************************************************

 **************************************************************************

                    xk=(  -0.26250,   0.26250,   0.26250  )

     Band symmetry, C_3v (3m)   point group:

     e(  1 -  1) =     -4.87071  eV     1   --> A_1  L_1       
     e(  2 -  2) =      2.06500  eV     1   --> A_1  L_1       
     e(  3 -  4) =      5.41568  eV     2   --> E    L_3       
     e(  5 -  5) =      8.20325  eV     1   --> A_1  L_1       
     e(  6 -  7) =      9.73986  eV     2   --> E    L_3       
     e(  8 -  8) =     13.34406  eV     1   --> A_1  L_1       

 **************************************************************************

 **************************************************************************

                    xk=(  -0.27500,   0.27500,   0.27500  )

     Band symmetry, C_3v (3m)   point group:

     e(  1 -  1) =     -4.78870  eV     1   --> A_1  L_1       
     e(  2 -  2) =      1.84567  eV     1   --> A_1  L_1       
     e(  3 -  4) =      5.37597  eV     2   --> E    L_3       
     e(  5 -  5) =      8.15990  eV     1   --> A_1  L_1       
     e(  6 -  7) =      9.74967  eV     2   --> E    L_3       
     e(  8 -  8) =     13.53479  eV     1   --> A_1  L_1       

 **************************************************************************

 **************************************************************************

                    xk=(  -0.28750,   0.28750,   0.28750  )

     Band symmetry, C_3v (3m)   point group:

     e(  1 -  1) =     -4.70383  eV     1   --> A_1  L_1       
     e(  2 -  2) =      1.63021  eV     1   --> A_1  L_1       
     e(  3 -  4) =      5.33809  eV     2   --> E    L_3       
     e(  5 -  5) =      8.11830  eV     1   --> A_1  L_1       
     e(  6 -  7) =      9.75307  eV     2   --> E    L_3       
     e(  8 -  8) =     13.69852  eV     1   -->   ?

 **************************************************************************

 **************************************************************************

                    xk=(  -0.30000,   0.30000,   0.30000  )

     Band symmetry, C_3v (3m)   point group:

     e(  1 -  1) =     -4.61630  eV     1   --> A_1  L_1       
     e(  2 -  2) =      1.41897  eV     1   --> A_1  L_1       
     e(  3 -  4) =      5.30213  eV     2   --> E    L_3       
     e(  5 -  5) =      8.07857  eV     1   --> A_1  L_1       
     e(  6 -  7) =      9.75085  eV     2   --> E    L_3       
     e(  8 -  8) =     13.82091  eV     1   -->   ?

 **************************************************************************

 **************************************************************************

                    xk=(  -0.31250,   0.31250,   0.31250  )

     Band symmetry, C_3v (3m)   point group:

     e(  1 -  1) =     -4.52641  eV     1   --> A_1  L_1       
     e(  2 -  2) =      1.21236  eV     1   --> A_1  L_1       
     e(  3 -  4) =      5.26815  eV     2   --> E    L_3       
     e(  5 -  5) =      8.04084  eV     1   --> A_1  L_1       
     e(  6 -  7) =      9.74386  eV     2   --> E    L_3       
     e(  8 -  8) =     13.95688  eV     1   -->   ?

 **************************************************************************

 **************************************************************************

                    xk=(  -0.32500,   0.32500,   0.32500  )

     Band symmetry, C_3v (3m)   point group:

     e(  1 -  1) =     -4.43446  eV     1   --> A_1  L_1       
     e(  2 -  2) =      1.01080  eV     1   --> A_1  L_1       
     e(  3 -  4) =      5.23621  eV     2   --> E    L_3       
     e(  5 -  5) =      8.00521  eV     1   --> A_1  L_1       
     e(  6 -  7) =      9.73303  eV     2   --> E    L_3       
     e(  8 -  8) =     14.05786  eV     1   --> A_1  L_1       

 **************************************************************************

 **************************************************************************

                    xk=(  -0.33750,   0.33750,   0.33750  )

     Band symmetry, C_3v (3m)   point group:

     e(  1 -  1) =     -4.34084  eV     1   --> A_1  L_1       
     e(  2 -  2) =      0.81477  eV     1   --> A_1  L_1       
     e(  3 -  4) =      5.20635  eV     2   --> E    L_3       
     e(  5 -  5) =      7.97175  eV     1   --> A_1  L_1       
     e(  6 -  7) =      9.71923  eV     2   --> E    L_3       
     e(  8 -  8) =     14.10374  eV     1   --> A_1  L_1       

 **************************************************************************

 **************************************************************************

                    xk=(  -0.35000,   0.35000,   0.35000  )

     Band symmetry, C_3v (3m)   point group:

     e(  1 -  1) =     -4.24604  eV     1   --> A_1  L_1       
     e(  2 -  2) =      0.62484  eV     1   --> A_1  L_1       
     e(  3 -  4) =      5.17861  eV     2   --> E    L_3       
     e(  5 -  5) =      7.94056  eV     1   --> A_1  L_1       
     e(  6 -  7) =      9.70331  eV     2   --> E    L_3       
     e(  8 -  8) =     14.12160  eV     1   --> A_1  L_1       

 **************************************************************************

 **************************************************************************

                    xk=(  -0.36250,   0.36250,   0.36250  )

     Band symmetry, C_3v (3m)   point group:

     e(  1 -  1) =     -4.15062  eV     1   --> A_1  L_1       
     e(  2 -  2) =      0.44167  eV     1   --> A_1  L_1       
     e(  3 -  4) =      5.15302  eV     2   --> E    L_3       
     e(  5 -  5) =      7.91168  eV     1   --> A_1  L_1       
     e(  6 -  7) =      9.68606  eV     2   --> E    L_3       
     e(  8 -  8) =     14.12031  eV     1   --> A_1  L_1       

 **************************************************************************

 **************************************************************************

                    xk=(  -0.37500,   0.37500,   0.37500  )

     Band symmetry, C_3v (3m)   point group:

     e(  1 -  1) =     -4.05529  eV     1   --> A_1  L_1       
     e(  2 -  2) =      0.26603  eV     1   --> A_1  L_1       
     e(  3 -  4) =      5.12961  eV     2   --> E    L_3       
     e(  5 -  5) =      7.88517  eV     1   --> A_1  L_1       
     e(  6 -  7) =      9.66818  eV     2   --> E    L_3       
     e(  8 -  8) =     14.10731  eV     1   --> A_1  L_1       

 **************************************************************************

 **************************************************************************

                    xk=(  -0.38750,   0.38750,   0.38750  )

     Band symmetry, C_3v (3m)   point group:

     e(  1 -  1) =     -3.96095  eV     1   --> A_1  L_1       
     e(  2 -  2) =      0.09886  eV     1   --> A_1  L_1       
     e(  3 -  4) =      5.10838  eV     2   --> E    L_3       
     e(  5 -  5) =      7.86108  eV     1   --> A_1  L_1       
     e(  6 -  7) =      9.65030  eV     2   --> E    L_3       
     e(  8 -  8) =     14.08791  eV     1   --> A_1  L_1       

 **************************************************************************

 **************************************************************************

                    xk=(  -0.40000,   0.40000,   0.40000  )

     Band symmetry, C_3v (3m)   point group:

     e(  1 -  1) =     -3.86867  eV     1   --> A_1  L_1       
     e(  2 -  2) =     -0.05870  eV     1   --> A_1  L_1       
     e(  3 -  4) =      5.08937  eV     2   --> E    L_3       
     e(  5 -  5) =      7.83945  eV     1   --> A_1  L_1       
     e(  6 -  7) =      9.63297  eV     2   --> E    L_3       
     e(  8 -  8) =     14.06565  eV     1   --> A_1  L_1       

 **************************************************************************

 **************************************************************************

                    xk=(  -0.41250,   0.41250,   0.41250  )

     Band symmetry, C_3v (3m)   point group:

     e(  1 -  1) =     -3.77978  eV     1   --> A_1  L_1       
     e(  2 -  2) =     -0.20530  eV     1   --> A_1  L_1       
     e(  3 -  4) =      5.07257  eV     2   --> E    L_3       
     e(  5 -  5) =      7.82029  eV     1   --> A_1  L_1       
     e(  6 -  7) =      9.61665  eV     2   --> E    L_3       
     e(  8 -  8) =     14.04286  eV     1   --> A_1  L_1       

 **************************************************************************

 **************************************************************************

                    xk=(  -0.42500,   0.42500,   0.42500  )

     Band symmetry, C_3v (3m)   point group:

     e(  1 -  1) =     -3.69588  eV     1   --> A_1  L_1       
     e(  2 -  2) =     -0.33928  eV     1   --> A_1  L_1       
     e(  3 -  4) =      5.05800  eV     2   --> E    L_3       
     e(  5 -  5) =      7.80364  eV     1   --> A_1  L_1       
     e(  6 -  7) =      9.60175  eV     2   --> E    L_3       
     e(  8 -  8) =     14.02111  eV     1   --> A_1  L_1       

 **************************************************************************

 **************************************************************************

                    xk=(  -0.43750,   0.43750,   0.43750  )

     Band symmetry, C_3v (3m)   point group:

     e(  1 -  1) =     -3.61890  eV     1   --> A_1  L_1       
     e(  2 -  2) =     -0.45870  eV     1   --> A_1  L_1       
     e(  3 -  4) =      5.04566  eV     2   --> E    L_3       
     e(  5 -  5) =      7.78953  eV     1   --> A_1  L_1       
     e(  6 -  7) =      9.58862  eV     2   --> E    L_3       
     e(  8 -  8) =     14.00146  eV     1   --> A_1  L_1       

 **************************************************************************

 **************************************************************************

                    xk=(  -0.45000,   0.45000,   0.45000  )

     Band symmetry, C_3v (3m)   point group:

     e(  1 -  1) =     -3.55103  eV     1   --> A_1  L_1       
     e(  2 -  2) =     -0.56133  eV     1   --> A_1  L_1       
     e(  3 -  4) =      5.03556  eV     2   --> E    L_3       
     e(  5 -  5) =      7.77795  eV     1   --> A_1  L_1       
     e(  6 -  7) =      9.57751  eV     2   --> E    L_3       
     e(  8 -  8) =     13.98462  eV     1   --> A_1  L_1       

 **************************************************************************

 **************************************************************************

                    xk=(  -0.46250,   0.46250,   0.46250  )

     Band symmetry, C_3v (3m)   point group:

     e(  1 -  1) =     -3.49464  eV     1   --> A_1  L_1       
     e(  2 -  2) =     -0.64477  eV     1   --> A_1  L_1       
     e(  3 -  4) =      5.02770  eV     2   --> E    L_3       
     e(  5 -  5) =      7.76894  eV     1   --> A_1  L_1       
     e(  6 -  7) =      9.56865  eV     2   --> E    L_3       
     e(  8 -  8) =     13.97109  eV     1   --> A_1  L_1       

 **************************************************************************

 **************************************************************************

                    xk=(  -0.47500,   0.47500,   0.47500  )

     Band symmetry, C_3v (3m)   point group:

     e(  1 -  1) =     -3.45214  eV     1   --> A_1  L_1       
     e(  2 -  2) =     -0.70660  eV     1   --> A_1  L_1       
     e(  3 -  4) =      5.02209  eV     2   --> E    L_3       
     e(  5 -  5) =      7.76250  eV     1   --> A_1  L_1       
     e(  6 -  7) =      9.56221  eV     2   --> E    L_3       
     e(  8 -  8) =     13.96121  eV     1   --> A_1  L_1       

 **************************************************************************

 **************************************************************************

                    xk=(  -0.48750,   0.48750,   0.48750  )

     Band symmetry, C_3v (3m)   point group:

     e(  1 -  1) =     -3.42565  eV     1   --> A_1  L_1       
     e(  2 -  2) =     -0.74469  eV     1   --> A_1  L_1       
     e(  3 -  4) =      5.01872  eV     2   --> E    L_3       
     e(  5 -  5) =      7.75863  eV     1   --> A_1  L_1       
     e(  6 -  7) =      9.55830  eV     2   --> E    L_3       
     e(  8 -  8) =     13.95521  eV     1   --> A_1  L_1       

 **************************************************************************

 **************************************************************************

                    xk=(  -0.50000,   0.50000,   0.50000  )

     zone border point and non-symmorphic group 
     symmetry decomposition not available

 **************************************************************************

     BANDS        :      3.19s CPU      3.58s WALL


   This run was terminated on:  14:12:12   1Nov2025            

=------------------------------------------------------------------------------=
   JOB DONE.
=------------------------------------------------------------------------------=
