
     Program PWSCF v.7.4.1 starts on  1Nov2025 at 14:12: 0 

     This program is part of the open-source Quantum ESPRESSO suite
     for quantum simulation of materials; please cite
         "P. Giannozzi et al., J. Phys.:Condens. Matter 21 395502 (2009);
         "P. Giannozzi et al., J. Phys.:Condens. Matter 29 465901 (2017);
         "P. Giannozzi et al., J. Chem. Phys. 152 154105 (2020);
          URL http://www.quantum-espresso.org", 
     in publications or presentations arising from this work. More details at
     http://www.quantum-espresso.org/quote

     Parallel version (MPI), running on     2 processors

     MPI processes distributed on     1 nodes
     0 MiB available memory on the printing compute node when the environment starts

     Reading input from scf.in

     Current dimensions of program PWSCF are:
     Max number of different atomic species (ntypx) = 10
     Max number of k-points (npk) =  40000
     Max angular momentum in pseudopotentials (lmaxx) =  4

     R & G space division:  proc/nbgrp/npool/nimage =       2
     Subspace diagonalization in iterative solution of the eigenvalue problem:
     a serial algorithm will be used


     Parallelization info
     --------------------
     sticks:   dense  smooth     PW     G-vecs:    dense   smooth      PW
     Min         579     291     93                13113     4628     819
     Max         580     292     94                13116     4629     820
     Sum        1159     583    187                26229     9257    1639

     Using Slab Decomposition



     bravais-lattice index     =            2
     lattice parameter (alat)  =      10.2600  a.u.
     unit-cell volume          =     270.0114 (a.u.)^3
     number of atoms/cell      =            2
     number of atomic types    =            1
     number of electrons       =         8.00
     number of Kohn-Sham states=            8
     kinetic-energy cutoff     =      40.0000  Ry
     charge density cutoff     =     320.0000  Ry
     scf convergence threshold =      1.0E-08
     mixing beta               =       0.7000
     number of iterations used =            8  plain     mixing
     Exchange-correlation= PBE
                           (   1   4   3   4   0   0   0)

     celldm(1)=  10.260000  celldm(2)=   0.000000  celldm(3)=   0.000000
     celldm(4)=   0.000000  celldm(5)=   0.000000  celldm(6)=   0.000000

     crystal axes: (cart. coord. in units of alat)
               a(1) = (  -0.500000   0.000000   0.500000 )  
               a(2) = (   0.000000   0.500000   0.500000 )  
               a(3) = (  -0.500000   0.500000   0.000000 )  

     reciprocal axes: (cart. coord. in units 2 pi/alat)
               b(1) = ( -1.000000 -1.000000  1.000000 )  
               b(2) = (  1.000000  1.000000  1.000000 )  
               b(3) = ( -1.000000  1.000000 -1.000000 )  


     PseudoPot. # 1 for Si read from file:
     /Users/pollob/qe_macm4_build/cases/common/pp/Si.pbe-n-rrkjus_psl.1.0.0.UPF
     MD5 check sum: fa25574f73a70a4139f2adfbefec430c
     Pseudo is Ultrasoft + core correction, Zval =  4.0
     Generated using &quot;atomic&quot; code by A. Dal Corso  v.6.3
     Using radial grid of 1141 points,  6 beta functions with: 
                l(1) =   0
                l(2) =   0
                l(3) =   1
                l(4) =   1
                l(5) =   2
                l(6) =   2
     Q(r) pseudized with 0 coefficients 


     atomic species   valence    mass     pseudopotential
     Si                4.00    28.08500     Si( 1.00)

     48 Sym. Ops., with inversion, found (24 have fractional translation)



   Cartesian axes

     site n.     atom                  positions (alat units)
         1        Si     tau(   1) = (   0.0000000   0.0000000   0.0000000  )
         2        Si     tau(   2) = (  -0.2500000   0.2500000   0.2500000  )

     number of k points=    16  Methfessel-Paxton smearing, width (Ry)=  0.0200
                       cart. coord. in units 2pi/alat
        k(    1) = (   0.0000000   0.0000000   0.0000000), wk =   0.0092593
        k(    2) = (  -0.1666667   0.1666667  -0.1666667), wk =   0.0740741
        k(    3) = (  -0.3333333   0.3333333  -0.3333333), wk =   0.0740741
        k(    4) = (   0.5000000  -0.5000000   0.5000000), wk =   0.0370370
        k(    5) = (   0.0000000   0.3333333   0.0000000), wk =   0.0555556
        k(    6) = (  -0.1666667   0.5000000  -0.1666667), wk =   0.2222222
        k(    7) = (   0.6666667  -0.3333333   0.6666667), wk =   0.2222222
        k(    8) = (   0.5000000  -0.1666667   0.5000000), wk =   0.2222222
        k(    9) = (   0.3333333   0.0000000   0.3333333), wk =   0.1111111
        k(   10) = (   0.0000000   0.6666667   0.0000000), wk =   0.0555556
        k(   11) = (   0.8333333  -0.1666667   0.8333333), wk =   0.2222222
        k(   12) = (   0.6666667  -0.0000000   0.6666667), wk =   0.1111111
        k(   13) = (   0.0000000  -1.0000000   0.0000000), wk =   0.0277778
        k(   14) = (   0.6666667  -0.3333333   1.0000000), wk =   0.2222222
        k(   15) = (   0.5000000  -0.1666667   0.8333333), wk =   0.2222222
        k(   16) = (  -0.3333333  -1.0000000   0.0000000), wk =   0.1111111

     Dense  grid:    26229 G-vectors     FFT dimensions: (  48,  48,  48)

     Smooth grid:     9257 G-vectors     FFT dimensions: (  32,  32,  32)

     Estimated max dynamical RAM per process >      49.75 MB

     Estimated total dynamical RAM >      99.50 MB

     Initial potential from superposition of free atoms

     starting charge       7.9989, renormalised to       8.0000
     Starting wfcs are    8 randomized atomic wfcs

     total cpu time spent up to now is        0.2 secs

     Self-consistent Calculation

     iteration #  1     ecut=    40.00 Ry     beta= 0.70
     Davidson diagonalization with overlap
     ethr =  1.00E-02,  avg # of iterations =  3.6

     Threshold (ethr) on eigenvalues was too large:
     Diagonalizing with lowered threshold

     Davidson diagonalization with overlap
     ethr =  6.56E-04,  avg # of iterations =  2.4

     total cpu time spent up to now is        0.4 secs

     total energy              =     -22.83538753 Ry
     estimated scf accuracy    <       0.05665767 Ry

     iteration #  2     ecut=    40.00 Ry     beta= 0.70
     Davidson diagonalization with overlap
     ethr =  7.08E-04,  avg # of iterations =  1.1

     total cpu time spent up to now is        0.5 secs

     WARNING: integrated charge=     7.99896154, expected=     8.00000000

     total energy              =     -22.83834680 Ry
     estimated scf accuracy    <       0.00226686 Ry

     iteration #  3     ecut=    40.00 Ry     beta= 0.70
     Davidson diagonalization with overlap
     ethr =  2.83E-05,  avg # of iterations =  4.2

     total cpu time spent up to now is        0.6 secs

     WARNING: integrated charge=     7.99842777, expected=     8.00000000

     total energy              =     -22.83866804 Ry
     estimated scf accuracy    <       0.00004873 Ry

     iteration #  4     ecut=    40.00 Ry     beta= 0.70
     Davidson diagonalization with overlap
     ethr =  6.09E-07,  avg # of iterations =  3.2

     total cpu time spent up to now is        0.7 secs

     WARNING: integrated charge=     7.99852123, expected=     8.00000000

     total energy              =     -22.83861183 Ry
     estimated scf accuracy    <       0.00000012 Ry

     iteration #  5     ecut=    40.00 Ry     beta= 0.70
     Davidson diagonalization with overlap
     ethr =  1.55E-09,  avg # of iterations =  3.9

     total cpu time spent up to now is        0.8 secs

     End of self-consistent calculation

          k = 0.0000 0.0000 0.0000 (  1139 PWs)   bands (ev):

    -5.7499   6.2186   6.2186   6.2186   8.7787   8.7787   8.7787   9.5876

          k =-0.1667 0.1667-0.1667 (  1167 PWs)   bands (ev):

    -5.3885   3.8352   5.7670   5.7670   8.5697   9.4274   9.4274  11.6756

          k =-0.3333 0.3333-0.3333 (  1149 PWs)   bands (ev):

    -4.3723   0.8793   5.2160   5.2160   7.9825   9.7240   9.7241  14.0924

          k = 0.5000-0.5000 0.5000 (  1158 PWs)   bands (ev):

    -3.4168  -0.7577   5.0175   5.0175   7.7572   9.5569   9.5569  13.9528

          k = 0.0000 0.3333 0.0000 (  1162 PWs)   bands (ev):

    -5.2655   4.1798   5.0229   5.0229   7.9212  10.5215  10.5642  10.5642

          k =-0.1667 0.5000-0.1667 (  1151 PWs)   bands (ev):

    -4.4498   1.7788   4.2228   4.4690   8.1826  10.2858  10.7449  11.2950

          k = 0.6667-0.3333 0.6667 (  1153 PWs)   bands (ev):

    -3.2574  -0.3927   3.4381   4.4389   8.2599  10.3366  10.8408  12.6433

          k = 0.5000-0.1667 0.5000 (  1156 PWs)   bands (ev):

    -3.6427   0.2072   3.1669   4.9187   8.6702  10.3440  10.4475  13.5162

          k = 0.3333 0.0000 0.3333 (  1147 PWs)   bands (ev):

    -4.7999   2.4986   3.8019   5.6524   9.2586   9.7750  10.0692  11.8871

          k = 0.0000 0.6667 0.0000 (  1150 PWs)   bands (ev):

    -3.8447   1.2048   3.7967   3.7967   6.9439   8.2101  13.4853  13.4853

          k = 0.8333-0.1667 0.8333 (  1149 PWs)   bands (ev):

    -2.6800  -0.3509   2.5811   3.6600   7.2805   8.9364  13.6723  13.7038

          k = 0.6667-0.0000 0.6667 (  1141 PWs)   bands (ev):

    -2.4835  -0.5564   1.7995   4.1029   7.7848  12.0247  12.6959  13.3002

          k = 0.0000-1.0000 0.0000 (  1162 PWs)   bands (ev):

    -1.6032  -1.6032   3.3616   3.3616   6.9270   6.9270  16.3263  16.3265

          k = 0.6667-0.3333 1.0000 (  1151 PWs)   bands (ev):

    -3.4592   0.5711   2.6438   3.9197   9.0722   9.9351  10.4548  13.2884

          k = 0.5000-0.1667 0.8333 (  1152 PWs)   bands (ev):

    -2.4735  -0.6296   2.2035   3.4524   9.5754   9.7774  12.3238  12.7406

          k =-0.3333-1.0000 0.0000 (  1154 PWs)   bands (ev):

    -1.4830  -1.4830   2.5682   2.5682   8.9681   8.9682  12.9858  12.9858

     the Fermi energy is     6.4566 ev

     WARNING: integrated charge=     7.99854694, expected=     8.00000000

!    total energy              =     -22.83860558 Ry
     estimated scf accuracy    <          5.9E-09 Ry
     smearing contrib. (-TS)   =       0.00010298 Ry
     internal energy E=F+TS    =     -22.83870856 Ry

     The total energy is F=E-TS. E is the sum of the following terms:
     one-electron contribution =       5.16873312 Ry
     hartree contribution      =       1.10450480 Ry
     xc contribution           =     -12.31101692 Ry
     ewald contribution        =     -16.80092957 Ry

     convergence has been achieved in   5 iterations

     Writing all to output data dir ./tmp_cutoff_40/cutoff_40.save/ :
     XML data file, charge density, pseudopotentials, collected wavefunctions

     init_run     :      0.13s CPU      0.13s WALL (       1 calls)
     electrons    :      0.58s CPU      0.65s WALL (       1 calls)

     Called by init_run:
     wfcinit      :      0.02s CPU      0.02s WALL (       1 calls)
     potinit      :      0.01s CPU      0.01s WALL (       1 calls)
     hinit0       :      0.06s CPU      0.06s WALL (       1 calls)

     Called by electrons:
     c_bands      :      0.35s CPU      0.38s WALL (       6 calls)
     sum_band     :      0.13s CPU      0.15s WALL (       6 calls)
     v_of_rho     :      0.04s CPU      0.05s WALL (       6 calls)
     newd         :      0.07s CPU      0.08s WALL (       6 calls)
     mix_rho      :      0.00s CPU      0.00s WALL (       6 calls)

     Called by c_bands:
     init_us_2    :      0.01s CPU      0.01s WALL (     208 calls)
     cegterg      :      0.33s CPU      0.36s WALL (      96 calls)

     Called by *egterg:
     cdiaghg      :      0.01s CPU      0.01s WALL (     376 calls)
     h_psi        :      0.28s CPU      0.29s WALL (     408 calls)
     s_psi        :      0.01s CPU      0.02s WALL (     408 calls)
     g_psi        :      0.00s CPU      0.00s WALL (     296 calls)

     Called by h_psi:
     h_psi:calbec :      0.02s CPU      0.02s WALL (     408 calls)
     vloc_psi     :      0.25s CPU      0.25s WALL (     408 calls)
     add_vuspsi   :      0.01s CPU      0.02s WALL (     408 calls)

     General routines
     calbec       :      0.02s CPU      0.03s WALL (     504 calls)
     fft          :      0.02s CPU      0.02s WALL (      77 calls)
     ffts         :      0.00s CPU      0.00s WALL (      12 calls)
     fftw         :      0.23s CPU      0.23s WALL (    5202 calls)
     interpolate  :      0.00s CPU      0.00s WALL (       6 calls)

     Parallel routines

     PWSCF        :      0.75s CPU      0.83s WALL


   This run was terminated on:  14:12: 1   1Nov2025            

=------------------------------------------------------------------------------=
   JOB DONE.
=------------------------------------------------------------------------------=
Note: The following floating-point exceptions are signalling: IEEE_UNDERFLOW_FLAG
Note: The following floating-point exceptions are signalling: IEEE_INVALID_FLAG IEEE_DIVIDE_BY_ZERO IEEE_UNDERFLOW_FLAG
