
     Program BANDS v.7.4.1 starts on  1Nov2025 at 14:12:59 

     This program is part of the open-source Quantum ESPRESSO suite
     for quantum simulation of materials; please cite
         "P. Giannozzi et al., J. Phys.:Condens. Matter 21 395502 (2009);
         "P. Giannozzi et al., J. Phys.:Condens. Matter 29 465901 (2017);
         "P. Giannozzi et al., J. Chem. Phys. 152 154105 (2020);
          URL http://www.quantum-espresso.org", 
     in publications or presentations arising from this work. More details at
     http://www.quantum-espresso.org/quote

     Parallel version (MPI), running on     2 processors

     MPI processes distributed on     1 nodes
     R & G space division:  proc/nbgrp/npool/nimage =       2
     0 MiB available memory on the printing compute node when the environment starts


     Reading xml data from directory:

     ./tmp_kmesh_4/kmesh_4.save/

     IMPORTANT: XC functional enforced from input :
     Exchange-correlation= PBE
                           (   1   4   3   4   0   0   0)
     Any further DFT definition will be discarded
     Please, verify this is what you really want


     Parallelization info
     --------------------
     sticks:   dense  smooth     PW     G-vecs:    dense   smooth      PW
     Min         429     216     69                 8432     2980     533
     Max         430     217     70                 8433     2981     534
     Sum         859     433    139                16865     5961    1067

     Using Slab Decomposition

     Reading collected, re-writing distributed wavefunctions
     high-symmetry point:  0.0000 0.0000 0.0000   x coordinate   0.0000
     high-symmetry point: -1.0000 0.0000 0.0000   x coordinate   1.0000
     high-symmetry point: -1.0000 0.5000 0.0000   x coordinate   1.5000
     high-symmetry point: -0.7500 0.7500 0.0000   x coordinate   1.8536
     high-symmetry point:  0.0000 0.0000 0.0000   x coordinate   2.9142
     high-symmetry point: -0.5000 0.5000 0.5000   x coordinate   3.7802

     Plottable bands (eV) written to file silicon.bands.dat.gnu
     Bands written to file silicon.bands.dat

 **************************************************************************

                    xk=(   0.00000,   0.00000,   0.00000  )

     point group O_h (m-3m) 
     there are 10 classes
     the character table:

       E     8C3   3C2   6C4   6C2'  i     8S6   3s_h  6S4   6s_d 
A_1g   1.00  1.00  1.00  1.00  1.00  1.00  1.00  1.00  1.00  1.00
A_2g   1.00  1.00  1.00 -1.00 -1.00  1.00  1.00  1.00 -1.00 -1.00
E_g    2.00 -1.00  2.00  0.00  0.00  2.00 -1.00  2.00  0.00  0.00
T_1g   3.00  0.00 -1.00  1.00 -1.00  3.00  0.00 -1.00  1.00 -1.00
T_2g   3.00  0.00 -1.00 -1.00  1.00  3.00  0.00 -1.00 -1.00  1.00
A_1u   1.00  1.00  1.00  1.00  1.00 -1.00 -1.00 -1.00 -1.00 -1.00
A_2u   1.00  1.00  1.00 -1.00 -1.00 -1.00 -1.00 -1.00  1.00  1.00
E_u    2.00 -1.00  2.00  0.00  0.00 -2.00  1.00 -2.00  0.00  0.00
T_1u   3.00  0.00 -1.00  1.00 -1.00 -3.00  0.00  1.00 -1.00  1.00
T_2u   3.00  0.00 -1.00 -1.00  1.00 -3.00  0.00  1.00  1.00 -1.00

     the symmetry operations in each class and the name of the first element:

     E        1
                                                                 
     8C3     17   19   20   18   24   21   22   23
                                                                 
     3C2      2    4    3
                                                                 
     6C4      7    8   15   16   12   11
                                                                 
     6C2'     5    6   14   13   10    9
                                                                 
     i       25
                                                                 
     8S6     41   43   44   42   48   45   46   47
                                                                 
     3s_h    26   28   27
                                                                 
     6S4     31   32   39   40   36   35
                                                                 
     6s_d    29   30   38   37   34   33
                                                                 

     Band symmetry, O_h (m-3m)  point group:

     e(  1 -  1) =     -5.71950  eV     1   --> A_1g G_1   G_1+
     e(  2 -  4) =      6.25636  eV     3   --> T_2g G_25' G_5+
     e(  5 -  7) =      8.80084  eV     3   --> T_1u G_15  G_4-
     e(  8 -  8) =      9.62773  eV     1   --> A_2u G_2'  G_2-

 **************************************************************************

 **************************************************************************

                    xk=(  -0.02500,   0.00000,   0.00000  )

     point group C_4v (4mm) 
     there are  5 classes
     the character table:

       E     2C4   C2    2s_v  2s_d 
A_1    1.00  1.00  1.00  1.00  1.00
A_2    1.00  1.00  1.00 -1.00 -1.00
B_1    1.00 -1.00  1.00  1.00 -1.00
B_2    1.00 -1.00  1.00 -1.00  1.00
E      2.00  0.00 -2.00  0.00  0.00

     the symmetry operations in each class and the name of the first element:

     E        1
                                                                 
     2C4      3    4
                                                                 
     C2       2
                                                                 
     2s_v     5    6
                                                                 
     2s_d     7    8
                                                                 

     Band symmetry, C_4v (4mm)  point group:

     e(  1 -  1) =     -5.71676  eV     1   --> A_1  G_1 D_1   
     e(  2 -  2) =      6.23744  eV     1   --> B_2  G_4 D_2'  
     e(  3 -  4) =      6.24421  eV     2   --> E    G_5 D_5   
     e(  5 -  5) =      8.79402  eV     1   --> A_1  G_1 D_1   
     e(  6 -  7) =      8.81631  eV     2   --> E    G_5 D_5   
     e(  8 -  8) =      9.64629  eV     1   --> B_2  G_4 D_2'  

 **************************************************************************

 **************************************************************************

                    xk=(  -0.05000,   0.00000,   0.00000  )

     Band symmetry, C_4v (4mm)  point group:

     e(  1 -  1) =     -5.70854  eV     1   --> A_1  G_1 D_1   
     e(  2 -  2) =      6.18196  eV     1   --> B_2  G_4 D_2'  
     e(  3 -  4) =      6.20880  eV     2   --> E    G_5 D_5   
     e(  5 -  5) =      8.77380  eV     1   --> A_1  G_1 D_1   
     e(  6 -  7) =      8.86185  eV     2   --> E    G_5 D_5   
     e(  8 -  8) =      9.70047  eV     1   --> B_2  G_4 D_2'  

 **************************************************************************

 **************************************************************************

                    xk=(  -0.07500,   0.00000,   0.00000  )

     Band symmetry, C_4v (4mm)  point group:

     e(  1 -  1) =     -5.69485  eV     1   --> A_1  G_1 D_1   
     e(  2 -  2) =      6.09339  eV     1   --> B_2  G_4 D_2'  
     e(  3 -  4) =      6.15250  eV     2   --> E    G_5 D_5   
     e(  5 -  5) =      8.74078  eV     1   --> A_1  G_1 D_1   
     e(  6 -  7) =      8.93502  eV     2   --> E    G_5 D_5   
     e(  8 -  8) =      9.78621  eV     1   --> B_2  G_4 D_2'  

 **************************************************************************

 **************************************************************************

                    xk=(  -0.10000,   0.00000,   0.00000  )

     Band symmetry, C_4v (4mm)  point group:

     e(  1 -  1) =     -5.67568  eV     1   --> A_1  G_1 D_1   
     e(  2 -  2) =      5.97644  eV     1   --> B_2  G_4 D_2'  
     e(  3 -  4) =      6.07864  eV     2   --> E    G_5 D_5   
     e(  5 -  5) =      8.69589  eV     1   --> A_1  G_1 D_1   
     e(  6 -  7) =      9.03248  eV     2   --> E    G_5 D_5   
     e(  8 -  8) =      9.89769  eV     1   --> B_2  G_4 D_2'  

 **************************************************************************

 **************************************************************************

                    xk=(  -0.12500,   0.00000,   0.00000  )

     Band symmetry, C_4v (4mm)  point group:

     e(  1 -  1) =     -5.65105  eV     1   --> A_1  G_1 D_1   
     e(  2 -  2) =      5.83612  eV     1   --> B_2  G_4 D_2'  
     e(  3 -  4) =      5.99078  eV     2   --> E    G_5 D_5   
     e(  5 -  5) =      8.64035  eV     1   --> A_1  G_1 D_1   
     e(  6 -  7) =      9.15061  eV     2   --> E    G_5 D_5   
     e(  8 -  8) =     10.02805  eV     1   --> B_2  G_4 D_2'  

 **************************************************************************

 **************************************************************************

                    xk=(  -0.15000,   0.00000,   0.00000  )

     Band symmetry, C_4v (4mm)  point group:

     e(  1 -  1) =     -5.62097  eV     1   --> A_1  G_1 D_1   
     e(  2 -  2) =      5.67709  eV     1   --> B_2  G_4 D_2'  
     e(  3 -  4) =      5.89231  eV     2   --> E    G_5 D_5   
     e(  5 -  5) =      8.57550  eV     1   --> A_1  G_1 D_1   
     e(  6 -  7) =      9.28601  eV     2   --> E    G_5 D_5   
     e(  8 -  8) =     10.16982  eV     1   --> B_2  G_4 D_2'  

 **************************************************************************

 **************************************************************************

                    xk=(  -0.17500,   0.00000,   0.00000  )

     Band symmetry, C_4v (4mm)  point group:

     e(  1 -  1) =     -5.58544  eV     1   --> A_1  G_1 D_1   
     e(  2 -  2) =      5.50328  eV     1   --> B_2  G_4 D_2'  
     e(  3 -  4) =      5.78612  eV     2   --> E    G_5 D_5   
     e(  5 -  5) =      8.50277  eV     1   --> A_1  G_1 D_1   
     e(  6 -  7) =      9.43573  eV     2   --> E    G_5 D_5   
     e(  8 -  8) =     10.31463  eV     1   --> B_2  G_4 D_2'  

 **************************************************************************

 **************************************************************************

                    xk=(  -0.20000,   0.00000,   0.00000  )

     Band symmetry, C_4v (4mm)  point group:

     e(  1 -  1) =     -5.54447  eV     1   --> A_1  G_1 D_1   
     e(  2 -  2) =      5.31794  eV     1   --> B_2  G_4 D_2'  
     e(  3 -  4) =      5.67464  eV     2   --> E    G_5 D_5   
     e(  5 -  5) =      8.42360  eV     1   --> A_1  G_1 D_1   
     e(  6 -  7) =      9.59731  eV     2   --> E    G_5 D_5   
     e(  8 -  8) =     10.45258  eV     1   --> B_2  G_4 D_2'  

 **************************************************************************

 **************************************************************************

                    xk=(  -0.22500,   0.00000,   0.00000  )

     Band symmetry, C_4v (4mm)  point group:

     e(  1 -  1) =     -5.49809  eV     1   --> A_1  G_1 D_1   
     e(  2 -  2) =      5.12354  eV     1   --> B_2  G_4 D_2'  
     e(  3 -  4) =      5.55972  eV     2   --> E    G_5 D_5   
     e(  5 -  5) =      8.33933  eV     1   --> A_1  G_1 D_1   
     e(  6 -  7) =      9.76872  eV     2   --> E    G_5 D_5   
     e(  8 -  8) =     10.57125  eV     1   --> B_2  G_4 D_2'  

 **************************************************************************

 **************************************************************************

                    xk=(  -0.25000,   0.00000,   0.00000  )

     Band symmetry, C_4v (4mm)  point group:

     e(  1 -  1) =     -5.44630  eV     1   --> A_1  G_1 D_1   
     e(  2 -  2) =      4.92216  eV     1   --> B_2  G_4 D_2'  
     e(  3 -  4) =      5.44307  eV     2   --> E    G_5 D_5   
     e(  5 -  5) =      8.25133  eV     1   --> A_1  G_1 D_1   
     e(  6 -  7) =      9.94841  eV     2   --> E    G_5 D_5   
     e(  8 -  8) =     10.65561  eV     1   --> B_2  G_4 D_2'  

 **************************************************************************

 **************************************************************************

                    xk=(  -0.27500,   0.00000,   0.00000  )

     Band symmetry, C_4v (4mm)  point group:

     e(  1 -  1) =     -5.38913  eV     1   --> A_1  G_1 D_1   
     e(  2 -  2) =      4.71521  eV     1   --> B_2  G_4 D_2'  
     e(  3 -  4) =      5.32581  eV     2   --> E    G_5 D_5   
     e(  5 -  5) =      8.16073  eV     1   --> A_1  G_1 D_1   
     e(  6 -  7) =     10.13502  eV     2   --> E    G_5 D_5   
     e(  8 -  8) =     10.69044  eV     1   --> B_2  G_4 D_2'  

 **************************************************************************

 **************************************************************************

                    xk=(  -0.30000,   0.00000,   0.00000  )

     Band symmetry, C_4v (4mm)  point group:

     e(  1 -  1) =     -5.32659  eV     1   --> A_1  G_1 D_1   
     e(  2 -  2) =      4.50398  eV     1   --> B_2  G_4 D_2'  
     e(  3 -  4) =      5.20894  eV     2   --> E    G_5 D_5   
     e(  5 -  5) =      8.06862  eV     1   --> A_1  G_1 D_1   
     e(  6 -  7) =     10.32762  eV     2   --> E    G_5 D_5   
     e(  8 -  8) =     10.66693  eV     1   --> B_2  G_4 D_2'  

 **************************************************************************

 **************************************************************************

                    xk=(  -0.32500,   0.00000,   0.00000  )

     Band symmetry, C_4v (4mm)  point group:

     e(  1 -  1) =     -5.25872  eV     1   --> A_1  G_1 D_1   
     e(  2 -  2) =      4.28930  eV     1   --> B_2  G_4 D_2'  
     e(  3 -  4) =      5.09314  eV     2   --> E    G_5 D_5   
     e(  5 -  5) =      7.97591  eV     1   --> A_1  G_1 D_1   
     e(  6 -  7) =     10.52547  eV     2   --> E    G_5 D_5   
     e(  8 -  8) =     10.58739  eV     1   --> B_2  G_4 D_2'  

 **************************************************************************

 **************************************************************************

                    xk=(  -0.35000,   0.00000,   0.00000  )

     Band symmetry, C_4v (4mm)  point group:

     e(  1 -  1) =     -5.18552  eV     1   --> A_1  G_1 D_1   
     e(  2 -  2) =      4.07196  eV     1   --> B_2  G_4 D_2'  
     e(  3 -  4) =      4.97921  eV     2   --> E    G_5 D_5   
     e(  5 -  5) =      7.88354  eV     1   --> A_1  G_1 D_1   
     e(  6 -  6) =     10.46326  eV     1   --> B_2  G_4 D_2'  
     e(  7 -  8) =     10.72766  eV     2   --> E    G_5 D_5   

 **************************************************************************

 **************************************************************************

                    xk=(  -0.37500,   0.00000,   0.00000  )

     Band symmetry, C_4v (4mm)  point group:

     e(  1 -  1) =     -5.10704  eV     1   --> A_1  G_1 D_1   
     e(  2 -  2) =      3.85247  eV     1   --> B_2  G_4 D_2'  
     e(  3 -  4) =      4.86754  eV     2   --> E    G_5 D_5   
     e(  5 -  5) =      7.79218  eV     1   --> A_1  G_1 D_1   
     e(  6 -  6) =     10.30827  eV     1   --> B_2  G_4 D_2'  
     e(  7 -  8) =     10.93366  eV     2   --> E    G_5 D_5   

 **************************************************************************

 **************************************************************************

                    xk=(  -0.40000,   0.00000,   0.00000  )

     Band symmetry, C_4v (4mm)  point group:

     e(  1 -  1) =     -5.02330  eV     1   --> A_1  G_1 D_1   
     e(  2 -  2) =      3.63130  eV     1   --> B_2  G_4 D_2'  
     e(  3 -  4) =      4.75856  eV     2   --> E    G_5 D_5   
     e(  5 -  5) =      7.70250  eV     1   --> A_1  G_1 D_1   
     e(  6 -  6) =     10.13394  eV     1   --> B_2  G_4 D_2'  
     e(  7 -  8) =     11.14305  eV     2   --> E    G_5 D_5   

 **************************************************************************

 **************************************************************************

                    xk=(  -0.42500,   0.00000,   0.00000  )

     Band symmetry, C_4v (4mm)  point group:

     e(  1 -  1) =     -4.93433  eV     1   --> A_1  G_1 D_1   
     e(  2 -  2) =      3.40883  eV     1   --> B_2  G_4 D_2'  
     e(  3 -  4) =      4.65261  eV     2   --> E    G_5 D_5   
     e(  5 -  5) =      7.61510  eV     1   --> A_1  G_1 D_1   
     e(  6 -  6) =      9.94860  eV     1   --> B_2  G_4 D_2'  
     e(  7 -  8) =     11.35544  eV     2   --> E    G_5 D_5   

 **************************************************************************

 **************************************************************************

                    xk=(  -0.45000,   0.00000,   0.00000  )

     Band symmetry, C_4v (4mm)  point group:

     e(  1 -  1) =     -4.84017  eV     1   --> A_1  G_1 D_1   
     e(  2 -  2) =      3.18535  eV     1   --> B_2  G_4 D_2'  
     e(  3 -  4) =      4.54997  eV     2   --> E    G_5 D_5   
     e(  5 -  5) =      7.53047  eV     1   --> A_1  G_1 D_1   
     e(  6 -  6) =      9.75795  eV     1   --> B_2  G_4 D_2'  
     e(  7 -  8) =     11.57052  eV     2   --> E    G_5 D_5   

 **************************************************************************

 **************************************************************************

                    xk=(  -0.47500,   0.00000,   0.00000  )

     Band symmetry, C_4v (4mm)  point group:

     e(  1 -  1) =     -4.74086  eV     1   --> A_1  G_1 D_1   
     e(  2 -  2) =      2.96115  eV     1   --> B_2  G_4 D_2'  
     e(  3 -  4) =      4.45089  eV     2   --> E    G_5 D_5   
     e(  5 -  5) =      7.44907  eV     1   --> A_1  G_1 D_1   
     e(  6 -  6) =      9.56589  eV     1   --> B_2  G_4 D_2'  
     e(  7 -  8) =     11.78800  eV     2   --> E    G_5 D_5   

 **************************************************************************

 **************************************************************************

                    xk=(  -0.50000,   0.00000,   0.00000  )

     Band symmetry, C_4v (4mm)  point group:

     e(  1 -  1) =     -4.63642  eV     1   --> A_1  G_1 D_1   
     e(  2 -  2) =      2.73645  eV     1   --> B_2  G_4 D_2'  
     e(  3 -  4) =      4.35557  eV     2   --> E    G_5 D_5   
     e(  5 -  5) =      7.37138  eV     1   --> A_1  G_1 D_1   
     e(  6 -  6) =      9.37511  eV     1   --> B_2  G_4 D_2'  
     e(  7 -  8) =     12.00787  eV     2   --> E    G_5 D_5   

 **************************************************************************

 **************************************************************************

                    xk=(  -0.52500,   0.00000,   0.00000  )

     Band symmetry, C_4v (4mm)  point group:

     e(  1 -  1) =     -4.52693  eV     1   --> A_1  G_1 D_1   
     e(  2 -  2) =      2.51146  eV     1   --> B_2  G_4 D_2'  
     e(  3 -  4) =      4.26416  eV     2   --> E    G_5 D_5   
     e(  5 -  5) =      7.29759  eV     1   --> A_1  G_1 D_1   
     e(  6 -  6) =      9.18748  eV     1   --> B_2  G_4 D_2'  
     e(  7 -  8) =     12.22951  eV     2   --> E    G_5 D_5   

 **************************************************************************

 **************************************************************************

                    xk=(  -0.55000,   0.00000,   0.00000  )

     Band symmetry, C_4v (4mm)  point group:

     e(  1 -  1) =     -4.41242  eV     1   --> A_1  G_1 D_1   
     e(  2 -  2) =      2.28638  eV     1   --> B_2  G_4 D_2'  
     e(  3 -  4) =      4.17680  eV     2   --> E    G_5 D_5   
     e(  5 -  5) =      7.22808  eV     1   --> A_1  G_1 D_1   
     e(  6 -  6) =      9.00436  eV     1   --> B_2  G_4 D_2'  
     e(  7 -  8) =     12.45295  eV     2   --> E    G_5 D_5   

 **************************************************************************

 **************************************************************************

                    xk=(  -0.57500,   0.00000,   0.00000  )

     Band symmetry, C_4v (4mm)  point group:

     e(  1 -  1) =     -4.29293  eV     1   --> A_1  G_1 D_1   
     e(  2 -  2) =      2.06137  eV     1   --> B_2  G_4 D_2'  
     e(  3 -  4) =      4.09360  eV     2   --> E    G_5 D_5   
     e(  5 -  5) =      7.16307  eV     1   --> A_1  G_1 D_1   
     e(  6 -  6) =      8.82666  eV     1   --> B_2  G_4 D_2'  
     e(  7 -  8) =     12.67811  eV     2   --> E    G_5 D_5   

 **************************************************************************

 **************************************************************************

                    xk=(  -0.60000,   0.00000,   0.00000  )

     Band symmetry, C_4v (4mm)  point group:

     e(  1 -  1) =     -4.16853  eV     1   --> A_1  G_1 D_1   
     e(  2 -  2) =      1.83669  eV     1   --> B_2  G_4 D_2'  
     e(  3 -  4) =      4.01478  eV     2   --> E    G_5 D_5   
     e(  5 -  5) =      7.10301  eV     1   --> A_1  G_1 D_1   
     e(  6 -  6) =      8.65529  eV     1   --> B_2  G_4 D_2'  
     e(  7 -  8) =     12.90485  eV     2   --> E    G_5 D_5   

 **************************************************************************

 **************************************************************************

                    xk=(  -0.62500,   0.00000,   0.00000  )

     Band symmetry, C_4v (4mm)  point group:

     e(  1 -  1) =     -4.03926  eV     1   --> A_1  G_1 D_1   
     e(  2 -  2) =      1.61247  eV     1   --> B_2  G_4 D_2'  
     e(  3 -  4) =      3.94035  eV     2   --> E    G_5 D_5   
     e(  5 -  5) =      7.04804  eV     1   --> A_1  G_1 D_1   
     e(  6 -  6) =      8.49071  eV     1   --> B_2  G_4 D_2'  
     e(  7 -  8) =     13.13309  eV     2   --> E    G_5 D_5   

 **************************************************************************

 **************************************************************************

                    xk=(  -0.65000,   0.00000,   0.00000  )

     Band symmetry, C_4v (4mm)  point group:

     e(  1 -  1) =     -3.90520  eV     1   --> A_1  G_1 D_1   
     e(  2 -  2) =      1.38888  eV     1   --> B_2  G_4 D_2'  
     e(  3 -  4) =      3.87042  eV     2   --> E    G_5 D_5   
     e(  5 -  5) =      6.99837  eV     1   --> A_1  G_1 D_1   
     e(  6 -  6) =      8.33318  eV     1   --> B_2  G_4 D_2'  
     e(  7 -  8) =     13.36272  eV     2   --> E    G_5 D_5   

 **************************************************************************

 **************************************************************************

                    xk=(  -0.67500,   0.00000,   0.00000  )

     Band symmetry, C_4v (4mm)  point group:

     e(  1 -  1) =     -3.76641  eV     1   --> A_1  G_1 D_1   
     e(  2 -  2) =      1.16615  eV     1   --> B_2  G_4 D_2'  
     e(  3 -  4) =      3.80504  eV     2   --> E    G_5 D_5   
     e(  5 -  5) =      6.95418  eV     1   --> A_1  G_1 D_1   
     e(  6 -  6) =      8.18326  eV     1   --> B_2  G_4 D_2'  
     e(  7 -  8) =     13.59370  eV     2   --> E    G_5 D_5   

 **************************************************************************

 **************************************************************************

                    xk=(  -0.70000,   0.00000,   0.00000  )

     Band symmetry, C_4v (4mm)  point group:

     e(  1 -  1) =     -3.62295  eV     1   --> A_1  G_1 D_1   
     e(  2 -  2) =      0.94444  eV     1   --> B_2  G_4 D_2'  
     e(  3 -  4) =      3.74430  eV     2   --> E    G_5 D_5   
     e(  5 -  5) =      6.91566  eV     1   --> A_1  G_1 D_1   
     e(  6 -  6) =      8.04102  eV     1   --> B_2  G_4 D_2'  
     e(  7 -  8) =     13.82593  eV     2   --> E    G_5 D_5   

 **************************************************************************

 **************************************************************************

                    xk=(  -0.72500,   0.00000,   0.00000  )

     Band symmetry, C_4v (4mm)  point group:

     e(  1 -  1) =     -3.47492  eV     1   --> A_1  G_1 D_1   
     e(  2 -  2) =      0.72392  eV     1   --> B_2  G_4 D_2'  
     e(  3 -  4) =      3.68819  eV     2   --> E    G_5 D_5   
     e(  5 -  5) =      6.88299  eV     1   --> A_1  G_1 D_1   
     e(  6 -  6) =      7.90663  eV     1   --> B_2  G_4 D_2'  
     e(  7 -  8) =     14.05934  eV     2   --> E    G_5 D_5   

 **************************************************************************

 **************************************************************************

                    xk=(  -0.75000,   0.00000,   0.00000  )

     Band symmetry, C_4v (4mm)  point group:

     e(  1 -  1) =     -3.32237  eV     1   --> A_1  G_1 D_1   
     e(  2 -  2) =      0.50480  eV     1   --> B_2  G_4 D_2'  
     e(  3 -  4) =      3.63685  eV     2   --> E    G_5 D_5   
     e(  5 -  5) =      6.85632  eV     1   --> A_1  G_1 D_1   
     e(  6 -  6) =      7.78015  eV     1   --> B_2  G_4 D_2'  
     e(  7 -  8) =     14.29379  eV     2   --> E    G_5 D_5   

 **************************************************************************

 **************************************************************************

                    xk=(  -0.77500,   0.00000,   0.00000  )

     Band symmetry, C_4v (4mm)  point group:

     e(  1 -  1) =     -3.16539  eV     1   --> A_1  G_1 D_1   
     e(  2 -  2) =      0.28726  eV     1   --> B_2  G_4 D_2'  
     e(  3 -  4) =      3.59029  eV     2   --> E    G_5 D_5   
     e(  5 -  5) =      6.83582  eV     1   --> A_1  G_1 D_1   
     e(  6 -  6) =      7.66166  eV     1   --> B_2  G_4 D_2'  
     e(  7 -  8) =     14.52911  eV     2   --> E    G_5 D_5   

 **************************************************************************

 **************************************************************************

                    xk=(  -0.80000,   0.00000,   0.00000  )

     Band symmetry, C_4v (4mm)  point group:

     e(  1 -  1) =     -3.00408  eV     1   --> A_1  G_1 D_1   
     e(  2 -  2) =      0.07148  eV     1   --> B_2  G_4 D_2'  
     e(  3 -  4) =      3.54854  eV     2   --> E    G_5 D_5   
     e(  5 -  5) =      6.82161  eV     1   --> A_1  G_1 D_1   
     e(  6 -  6) =      7.55118  eV     1   --> B_2  G_4 D_2'  
     e(  7 -  8) =     14.76506  eV     2   --> E    G_5 D_5   

 **************************************************************************

 **************************************************************************

                    xk=(  -0.82500,   0.00000,   0.00000  )

     Band symmetry, C_4v (4mm)  point group:

     e(  1 -  1) =     -2.83854  eV     1   --> A_1  G_1 D_1   
     e(  2 -  2) =     -0.14236  eV     1   --> B_2  G_4 D_2'  
     e(  3 -  4) =      3.51162  eV     2   --> E    G_5 D_5   
     e(  5 -  5) =      6.81385  eV     1   --> A_1  G_1 D_1   
     e(  6 -  6) =      7.44868  eV     1   --> B_2  G_4 D_2'  
     e(  7 -  8) =     15.00124  eV     2   --> E    G_5 D_5   

 **************************************************************************

 **************************************************************************

                    xk=(  -0.85000,   0.00000,   0.00000  )

     Band symmetry, C_4v (4mm)  point group:

     e(  1 -  1) =     -2.66884  eV     1   --> A_1  G_1 D_1   
     e(  2 -  2) =     -0.35407  eV     1   --> B_2  G_4 D_2'  
     e(  3 -  4) =      3.47959  eV     2   --> E    G_5 D_5   
     e(  5 -  5) =      6.81272  eV     1   --> A_1  G_1 D_1   
     e(  6 -  6) =      7.35417  eV     1   --> B_2  G_4 D_2'  
     e(  7 -  8) =     15.23703  eV     2   --> E    G_5 D_5   

 **************************************************************************

 **************************************************************************

                    xk=(  -0.87500,   0.00000,   0.00000  )

     Band symmetry, C_4v (4mm)  point group:

     e(  1 -  1) =     -2.49511  eV     1   --> A_1  G_1 D_1   
     e(  2 -  2) =     -0.56348  eV     1   --> B_2  G_4 D_2'  
     e(  3 -  4) =      3.45244  eV     2   --> E    G_5 D_5   
     e(  5 -  5) =      6.81824  eV     1   --> A_1  G_1 D_1   
     e(  6 -  6) =      7.26755  eV     1   --> B_2  G_4 D_2'  
     e(  7 -  8) =     15.47119  eV     2   --> E    G_5 D_5   

 **************************************************************************

 **************************************************************************

                    xk=(  -0.90000,   0.00000,   0.00000  )

     Band symmetry, C_4v (4mm)  point group:

     e(  1 -  1) =     -2.31746  eV     1   --> A_1  G_1 D_1   
     e(  2 -  2) =     -0.77042  eV     1   --> B_2  G_4 D_2'  
     e(  3 -  4) =      3.43021  eV     2   --> E    G_5 D_5   
     e(  5 -  5) =      6.83057  eV     1   --> A_1  G_1 D_1   
     e(  6 -  6) =      7.18878  eV     1   --> B_2  G_4 D_2'  
     e(  7 -  8) =     15.70159  eV     2   --> E    G_5 D_5   

 **************************************************************************

 **************************************************************************

                    xk=(  -0.92500,   0.00000,   0.00000  )

     Band symmetry, C_4v (4mm)  point group:

     e(  1 -  1) =     -2.13600  eV     1   --> A_1  G_1 D_1   
     e(  2 -  2) =     -0.97471  eV     1   --> B_2  G_4 D_2'  
     e(  3 -  4) =      3.41289  eV     2   --> E    G_5 D_5   
     e(  5 -  5) =      6.84986  eV     1   --> A_1  G_1 D_1   
     e(  6 -  6) =      7.11779  eV     1   --> B_2  G_4 D_2'  
     e(  7 -  8) =     15.92387  eV     2   --> E    G_5 D_5   

 **************************************************************************

 **************************************************************************

                    xk=(  -0.95000,   0.00000,   0.00000  )

     Band symmetry, C_4v (4mm)  point group:

     e(  1 -  1) =     -1.95086  eV     1   --> A_1  G_1 D_1   
     e(  2 -  2) =     -1.17618  eV     1   --> B_2  G_4 D_2'  
     e(  3 -  4) =      3.40053  eV     2   --> E    G_5 D_5   
     e(  5 -  5) =      6.87624  eV     1   --> A_1  G_1 D_1   
     e(  6 -  6) =      7.05449  eV     1   --> B_2  G_4 D_2'  
     e(  7 -  8) =     16.12820  eV     2   --> E    G_5 D_5   

 **************************************************************************

 **************************************************************************

                    xk=(  -0.97500,   0.00000,   0.00000  )

     Band symmetry, C_4v (4mm)  point group:

     e(  1 -  1) =     -1.76217  eV     1   --> A_1  G_1 D_1   
     e(  2 -  2) =     -1.37469  eV     1   --> B_2  G_4 D_2'  
     e(  3 -  4) =      3.39310  eV     2   --> E    G_5 D_5   
     e(  5 -  5) =      6.90976  eV     1   --> A_1  G_1 D_1   
     e(  6 -  6) =      6.99878  eV     1   --> B_2  G_4 D_2'  
     e(  7 -  8) =     16.28980  eV     2   --> E    G_5 D_5   

 **************************************************************************

 **************************************************************************

                    xk=(  -1.00000,   0.00000,   0.00000  )

     zone border point and non-symmorphic group 
     symmetry decomposition not available

 **************************************************************************

 **************************************************************************

                    xk=(  -1.00000,   0.01250,   0.00000  )

     zone border point and non-symmorphic group 
     symmetry decomposition not available

 **************************************************************************

 **************************************************************************

                    xk=(  -1.00000,   0.02500,   0.00000  )

     zone border point and non-symmorphic group 
     symmetry decomposition not available

 **************************************************************************

 **************************************************************************

                    xk=(  -1.00000,   0.03750,   0.00000  )

     zone border point and non-symmorphic group 
     symmetry decomposition not available

 **************************************************************************

 **************************************************************************

                    xk=(  -1.00000,   0.05000,   0.00000  )

     zone border point and non-symmorphic group 
     symmetry decomposition not available

 **************************************************************************

 **************************************************************************

                    xk=(  -1.00000,   0.06250,   0.00000  )

     zone border point and non-symmorphic group 
     symmetry decomposition not available

 **************************************************************************

 **************************************************************************

                    xk=(  -1.00000,   0.07500,   0.00000  )

     zone border point and non-symmorphic group 
     symmetry decomposition not available

 **************************************************************************

 **************************************************************************

                    xk=(  -1.00000,   0.08750,   0.00000  )

     zone border point and non-symmorphic group 
     symmetry decomposition not available

 **************************************************************************

 **************************************************************************

                    xk=(  -1.00000,   0.10000,   0.00000  )

     zone border point and non-symmorphic group 
     symmetry decomposition not available

 **************************************************************************

 **************************************************************************

                    xk=(  -1.00000,   0.11250,   0.00000  )

     zone border point and non-symmorphic group 
     symmetry decomposition not available

 **************************************************************************

 **************************************************************************

                    xk=(  -1.00000,   0.12500,   0.00000  )

     zone border point and non-symmorphic group 
     symmetry decomposition not available

 **************************************************************************

 **************************************************************************

                    xk=(  -1.00000,   0.13750,   0.00000  )

     zone border point and non-symmorphic group 
     symmetry decomposition not available

 **************************************************************************

 **************************************************************************

                    xk=(  -1.00000,   0.15000,   0.00000  )

     zone border point and non-symmorphic group 
     symmetry decomposition not available

 **************************************************************************

 **************************************************************************

                    xk=(  -1.00000,   0.16250,   0.00000  )

     zone border point and non-symmorphic group 
     symmetry decomposition not available

 **************************************************************************

 **************************************************************************

                    xk=(  -1.00000,   0.17500,   0.00000  )

     zone border point and non-symmorphic group 
     symmetry decomposition not available

 **************************************************************************

 **************************************************************************

                    xk=(  -1.00000,   0.18750,   0.00000  )

     zone border point and non-symmorphic group 
     symmetry decomposition not available

 **************************************************************************

 **************************************************************************

                    xk=(  -1.00000,   0.20000,   0.00000  )

     zone border point and non-symmorphic group 
     symmetry decomposition not available

 **************************************************************************

 **************************************************************************

                    xk=(  -1.00000,   0.21250,   0.00000  )

     zone border point and non-symmorphic group 
     symmetry decomposition not available

 **************************************************************************

 **************************************************************************

                    xk=(  -1.00000,   0.22500,   0.00000  )

     zone border point and non-symmorphic group 
     symmetry decomposition not available

 **************************************************************************

 **************************************************************************

                    xk=(  -1.00000,   0.23750,   0.00000  )

     zone border point and non-symmorphic group 
     symmetry decomposition not available

 **************************************************************************

 **************************************************************************

                    xk=(  -1.00000,   0.25000,   0.00000  )

     zone border point and non-symmorphic group 
     symmetry decomposition not available

 **************************************************************************

 **************************************************************************

                    xk=(  -1.00000,   0.26250,   0.00000  )

     zone border point and non-symmorphic group 
     symmetry decomposition not available

 **************************************************************************

 **************************************************************************

                    xk=(  -1.00000,   0.27500,   0.00000  )

     zone border point and non-symmorphic group 
     symmetry decomposition not available

 **************************************************************************

 **************************************************************************

                    xk=(  -1.00000,   0.28750,   0.00000  )

     zone border point and non-symmorphic group 
     symmetry decomposition not available

 **************************************************************************

 **************************************************************************

                    xk=(  -1.00000,   0.30000,   0.00000  )

     zone border point and non-symmorphic group 
     symmetry decomposition not available

 **************************************************************************

 **************************************************************************

                    xk=(  -1.00000,   0.31250,   0.00000  )

     zone border point and non-symmorphic group 
     symmetry decomposition not available

 **************************************************************************

 **************************************************************************

                    xk=(  -1.00000,   0.32500,   0.00000  )

     zone border point and non-symmorphic group 
     symmetry decomposition not available

 **************************************************************************

 **************************************************************************

                    xk=(  -1.00000,   0.33750,   0.00000  )

     zone border point and non-symmorphic group 
     symmetry decomposition not available

 **************************************************************************

 **************************************************************************

                    xk=(  -1.00000,   0.35000,   0.00000  )

     zone border point and non-symmorphic group 
     symmetry decomposition not available

 **************************************************************************

 **************************************************************************

                    xk=(  -1.00000,   0.36250,   0.00000  )

     zone border point and non-symmorphic group 
     symmetry decomposition not available

 **************************************************************************

 **************************************************************************

                    xk=(  -1.00000,   0.37500,   0.00000  )

     zone border point and non-symmorphic group 
     symmetry decomposition not available

 **************************************************************************

 **************************************************************************

                    xk=(  -1.00000,   0.38750,   0.00000  )

     zone border point and non-symmorphic group 
     symmetry decomposition not available

 **************************************************************************

 **************************************************************************

                    xk=(  -1.00000,   0.40000,   0.00000  )

     zone border point and non-symmorphic group 
     symmetry decomposition not available

 **************************************************************************

 **************************************************************************

                    xk=(  -1.00000,   0.41250,   0.00000  )

     zone border point and non-symmorphic group 
     symmetry decomposition not available

 **************************************************************************

 **************************************************************************

                    xk=(  -1.00000,   0.42500,   0.00000  )

     zone border point and non-symmorphic group 
     symmetry decomposition not available

 **************************************************************************

 **************************************************************************

                    xk=(  -1.00000,   0.43750,   0.00000  )

     zone border point and non-symmorphic group 
     symmetry decomposition not available

 **************************************************************************

 **************************************************************************

                    xk=(  -1.00000,   0.45000,   0.00000  )

     zone border point and non-symmorphic group 
     symmetry decomposition not available

 **************************************************************************

 **************************************************************************

                    xk=(  -1.00000,   0.46250,   0.00000  )

     zone border point and non-symmorphic group 
     symmetry decomposition not available

 **************************************************************************

 **************************************************************************

                    xk=(  -1.00000,   0.47500,   0.00000  )

     zone border point and non-symmorphic group 
     symmetry decomposition not available

 **************************************************************************

 **************************************************************************

                    xk=(  -1.00000,   0.48750,   0.00000  )

     zone border point and non-symmorphic group 
     symmetry decomposition not available

 **************************************************************************

 **************************************************************************

                    xk=(  -1.00000,   0.50000,   0.00000  )

     zone border point and non-symmorphic group 
     symmetry decomposition not available

 **************************************************************************

 **************************************************************************

                    xk=(  -0.99375,   0.50625,   0.00000  )

     point group C_s (m)    
     there are  2 classes
     the character table:

       E     s    
A'     1.00  1.00
A''    1.00 -1.00

     the symmetry operations in each class and the name of the first element:

     E        1
                                                                 
     s        2
                                                                 

     Band symmetry, C_s (m)     point group:

     e(  1 -  1) =     -1.43334  eV     1   --> A'             
     e(  2 -  2) =     -1.37678  eV     1   --> A''            
     e(  3 -  3) =      2.36469  eV     1   --> A'             
     e(  4 -  4) =      2.40882  eV     1   --> A''            
     e(  5 -  5) =     10.48458  eV     1   --> A''            
     e(  6 -  6) =     10.53972  eV     1   --> A'             
     e(  7 -  7) =     11.23875  eV     1   --> A''            
     e(  8 -  8) =     11.27478  eV     1   --> A'             

 **************************************************************************

 **************************************************************************

                    xk=(  -0.98750,   0.51250,   0.00000  )

     Band symmetry, C_s (m)     point group:

     e(  1 -  1) =     -1.46104  eV     1   --> A'             
     e(  2 -  2) =     -1.34980  eV     1   --> A''            
     e(  3 -  3) =      2.34370  eV     1   --> A'             
     e(  4 -  4) =      2.43350  eV     1   --> A''            
     e(  5 -  5) =     10.42282  eV     1   --> A''            
     e(  6 -  6) =     10.55415  eV     1   --> A'             
     e(  7 -  7) =     11.25729  eV     1   --> A''            
     e(  8 -  8) =     11.30771  eV     1   --> A'             

 **************************************************************************

 **************************************************************************

                    xk=(  -0.98125,   0.51875,   0.00000  )

     Band symmetry, C_s (m)     point group:

     e(  1 -  1) =     -1.48803  eV     1   --> A'             
     e(  2 -  2) =     -1.32401  eV     1   --> A''            
     e(  3 -  3) =      2.32317  eV     1   --> A'             
     e(  4 -  4) =      2.46014  eV     1   --> A''            
     e(  5 -  5) =     10.34212  eV     1   --> A''            
     e(  6 -  6) =     10.56419  eV     1   --> A'             
     e(  7 -  7) =     11.29651  eV     1   --> A''            
     e(  8 -  8) =     11.34609  eV     1   --> A'             

 **************************************************************************

 **************************************************************************

                    xk=(  -0.97500,   0.52500,   0.00000  )

     Band symmetry, C_s (m)     point group:

     e(  1 -  1) =     -1.51432  eV     1   --> A'             
     e(  2 -  2) =     -1.29940  eV     1   --> A''            
     e(  3 -  3) =      2.30312  eV     1   --> A'             
     e(  4 -  4) =      2.48873  eV     1   --> A''            
     e(  5 -  5) =     10.24905  eV     1   --> A''            
     e(  6 -  6) =     10.57034  eV     1   --> A'             
     e(  7 -  7) =     11.34984  eV     1   --> A''            
     e(  8 -  8) =     11.38943  eV     1   --> A'             

 **************************************************************************

 **************************************************************************

                    xk=(  -0.96875,   0.53125,   0.00000  )

     Band symmetry, C_s (m)     point group:

     e(  1 -  1) =     -1.53990  eV     1   --> A'             
     e(  2 -  2) =     -1.27598  eV     1   --> A''            
     e(  3 -  3) =      2.28355  eV     1   --> A'             
     e(  4 -  4) =      2.51920  eV     1   --> A''            
     e(  5 -  5) =     10.14835  eV     1   --> A''            
     e(  6 -  6) =     10.57314  eV     1   --> A'             
     e(  7 -  7) =     11.41259  eV     1   --> A''            
     e(  8 -  8) =     11.43715  eV     1   --> A'             

 **************************************************************************

 **************************************************************************

                    xk=(  -0.96250,   0.53750,   0.00000  )

     Band symmetry, C_s (m)     point group:

     e(  1 -  1) =     -1.56477  eV     1   --> A'             
     e(  2 -  2) =     -1.25372  eV     1   --> A''            
     e(  3 -  3) =      2.26447  eV     1   --> A'             
     e(  4 -  4) =      2.55152  eV     1   --> A''            
     e(  5 -  5) =     10.04307  eV     1   --> A''            
     e(  6 -  6) =     10.57314  eV     1   --> A'             
     e(  7 -  7) =     11.48175  eV     1   --> A''            
     e(  8 -  8) =     11.48870  eV     1   --> A'             

 **************************************************************************

 **************************************************************************

                    xk=(  -0.95625,   0.54375,   0.00000  )

     Band symmetry, C_s (m)     point group:

     e(  1 -  1) =     -1.58892  eV     1   --> A'             
     e(  2 -  2) =     -1.23261  eV     1   --> A''            
     e(  3 -  3) =      2.24588  eV     1   --> A'             
     e(  4 -  4) =      2.58563  eV     1   --> A''            
     e(  5 -  5) =      9.93514  eV     1   --> A''            
     e(  6 -  6) =     10.57088  eV     1   --> A'             
     e(  7 -  7) =     11.54354  eV     1   --> A'             
     e(  8 -  8) =     11.55544  eV     1   --> A''            

 **************************************************************************

 **************************************************************************

                    xk=(  -0.95000,   0.55000,   0.00000  )

     Band symmetry, C_s (m)     point group:

     e(  1 -  1) =     -1.61237  eV     1   --> A'             
     e(  2 -  2) =     -1.21264  eV     1   --> A''            
     e(  3 -  3) =      2.22779  eV     1   --> A'             
     e(  4 -  4) =      2.62147  eV     1   --> A''            
     e(  5 -  5) =      9.82578  eV     1   --> A''            
     e(  6 -  6) =     10.56680  eV     1   --> A'             
     e(  7 -  7) =     11.60126  eV     1   --> A'             
     e(  8 -  8) =     11.63246  eV     1   --> A''            

 **************************************************************************

 **************************************************************************

                    xk=(  -0.94375,   0.55625,   0.00000  )

     Band symmetry, C_s (m)     point group:

     e(  1 -  1) =     -1.63511  eV     1   --> A'             
     e(  2 -  2) =     -1.19377  eV     1   --> A''            
     e(  3 -  3) =      2.21020  eV     1   --> A'             
     e(  4 -  4) =      2.65897  eV     1   --> A''            
     e(  5 -  5) =      9.71582  eV     1   --> A''            
     e(  6 -  6) =     10.56128  eV     1   --> A'             
     e(  7 -  7) =     11.66135  eV     1   --> A'             
     e(  8 -  8) =     11.71204  eV     1   --> A''            

 **************************************************************************

 **************************************************************************

                    xk=(  -0.93750,   0.56250,   0.00000  )

     Band symmetry, C_s (m)     point group:

     e(  1 -  1) =     -1.65714  eV     1   --> A'             
     e(  2 -  2) =     -1.17600  eV     1   --> A''            
     e(  3 -  3) =      2.19312  eV     1   --> A'             
     e(  4 -  4) =      2.69802  eV     1   --> A''            
     e(  5 -  5) =      9.60575  eV     1   --> A''            
     e(  6 -  6) =     10.55464  eV     1   --> A'             
     e(  7 -  7) =     11.72349  eV     1   --> A'             
     e(  8 -  8) =     11.79363  eV     1   --> A''            

 **************************************************************************

 **************************************************************************

                    xk=(  -0.93125,   0.56875,   0.00000  )

     Band symmetry, C_s (m)     point group:

     e(  1 -  1) =     -1.67844  eV     1   --> A'             
     e(  2 -  2) =     -1.15927  eV     1   --> A''            
     e(  3 -  3) =      2.17656  eV     1   --> A'             
     e(  4 -  4) =      2.73858  eV     1   --> A''            
     e(  5 -  5) =      9.49616  eV     1   --> A''            
     e(  6 -  6) =     10.54720  eV     1   --> A'             
     e(  7 -  7) =     11.78750  eV     1   --> A'             
     e(  8 -  8) =     11.87699  eV     1   --> A''            

 **************************************************************************

 **************************************************************************

                    xk=(  -0.92500,   0.57500,   0.00000  )

     Band symmetry, C_s (m)     point group:

     e(  1 -  1) =     -1.69904  eV     1   --> A'             
     e(  2 -  2) =     -1.14358  eV     1   --> A''            
     e(  3 -  3) =      2.16051  eV     1   --> A'             
     e(  4 -  4) =      2.78053  eV     1   --> A''            
     e(  5 -  5) =      9.38724  eV     1   --> A''            
     e(  6 -  6) =     10.53910  eV     1   --> A'             
     e(  7 -  7) =     11.85301  eV     1   --> A'             
     e(  8 -  8) =     11.96170  eV     1   --> A''            

 **************************************************************************

 **************************************************************************

                    xk=(  -0.91875,   0.58125,   0.00000  )

     Band symmetry, C_s (m)     point group:

     e(  1 -  1) =     -1.71892  eV     1   --> A'             
     e(  2 -  2) =     -1.12887  eV     1   --> A''            
     e(  3 -  3) =      2.14499  eV     1   --> A'             
     e(  4 -  4) =      2.82377  eV     1   --> A''            
     e(  5 -  5) =      9.27929  eV     1   --> A''            
     e(  6 -  6) =     10.53059  eV     1   --> A'             
     e(  7 -  7) =     11.91990  eV     1   --> A'             
     e(  8 -  8) =     12.04765  eV     1   --> A''            

 **************************************************************************

 **************************************************************************

                    xk=(  -0.91250,   0.58750,   0.00000  )

     Band symmetry, C_s (m)     point group:

     e(  1 -  1) =     -1.73808  eV     1   --> A'             
     e(  2 -  2) =     -1.11512  eV     1   --> A''            
     e(  3 -  3) =      2.13001  eV     1   --> A'             
     e(  4 -  4) =      2.86818  eV     1   --> A''            
     e(  5 -  5) =      9.17251  eV     1   --> A''            
     e(  6 -  6) =     10.52180  eV     1   --> A'             
     e(  7 -  7) =     11.98798  eV     1   --> A'             
     e(  8 -  8) =     12.13468  eV     1   --> A''            

 **************************************************************************

 **************************************************************************

                    xk=(  -0.90625,   0.59375,   0.00000  )

     Band symmetry, C_s (m)     point group:

     e(  1 -  1) =     -1.75653  eV     1   --> A'             
     e(  2 -  2) =     -1.10229  eV     1   --> A''            
     e(  3 -  3) =      2.11555  eV     1   --> A'             
     e(  4 -  4) =      2.91365  eV     1   --> A''            
     e(  5 -  5) =      9.06708  eV     1   --> A''            
     e(  6 -  6) =     10.51284  eV     1   --> A'             
     e(  7 -  7) =     12.05711  eV     1   --> A'             
     e(  8 -  8) =     12.22271  eV     1   --> A''            

 **************************************************************************

 **************************************************************************

                    xk=(  -0.90000,   0.60000,   0.00000  )

     Band symmetry, C_s (m)     point group:

     e(  1 -  1) =     -1.77426  eV     1   --> A'             
     e(  2 -  2) =     -1.09034  eV     1   --> A''            
     e(  3 -  3) =      2.10163  eV     1   --> A'             
     e(  4 -  4) =      2.96005  eV     1   --> A''            
     e(  5 -  5) =      8.96318  eV     1   --> A''            
     e(  6 -  6) =     10.50382  eV     1   --> A'             
     e(  7 -  7) =     12.12717  eV     1   --> A'             
     e(  8 -  8) =     12.31162  eV     1   --> A''            

 **************************************************************************

 **************************************************************************

                    xk=(  -0.89375,   0.60625,   0.00000  )

     Band symmetry, C_s (m)     point group:

     e(  1 -  1) =     -1.79127  eV     1   --> A'             
     e(  2 -  2) =     -1.07923  eV     1   --> A''            
     e(  3 -  3) =      2.08825  eV     1   --> A'             
     e(  4 -  4) =      3.00724  eV     1   --> A''            
     e(  5 -  5) =      8.86097  eV     1   --> A''            
     e(  6 -  6) =     10.49482  eV     1   --> A'             
     e(  7 -  7) =     12.19805  eV     1   --> A'             
     e(  8 -  8) =     12.40137  eV     1   --> A''            

 **************************************************************************

 **************************************************************************

                    xk=(  -0.88750,   0.61250,   0.00000  )

     Band symmetry, C_s (m)     point group:

     e(  1 -  1) =     -1.80756  eV     1   --> A'             
     e(  2 -  2) =     -1.06892  eV     1   --> A''            
     e(  3 -  3) =      2.07542  eV     1   --> A'             
     e(  4 -  4) =      3.05507  eV     1   --> A''            
     e(  5 -  5) =      8.76060  eV     1   --> A''            
     e(  6 -  6) =     10.48592  eV     1   --> A'             
     e(  7 -  7) =     12.26966  eV     1   --> A'             
     e(  8 -  8) =     12.49189  eV     1   --> A''            

 **************************************************************************

 **************************************************************************

                    xk=(  -0.88125,   0.61875,   0.00000  )

     Band symmetry, C_s (m)     point group:

     e(  1 -  1) =     -1.82313  eV     1   --> A'             
     e(  2 -  2) =     -1.05938  eV     1   --> A''            
     e(  3 -  3) =      2.06314  eV     1   --> A'             
     e(  4 -  4) =      3.10339  eV     1   --> A''            
     e(  5 -  5) =      8.66226  eV     1   --> A''            
     e(  6 -  6) =     10.47717  eV     1   --> A'             
     e(  7 -  7) =     12.34191  eV     1   --> A'             
     e(  8 -  8) =     12.58314  eV     1   --> A''            

 **************************************************************************

 **************************************************************************

                    xk=(  -0.87500,   0.62500,   0.00000  )

     Band symmetry, C_s (m)     point group:

     e(  1 -  1) =     -1.83798  eV     1   --> A'             
     e(  2 -  2) =     -1.05057  eV     1   --> A''            
     e(  3 -  3) =      2.05140  eV     1   --> A'             
     e(  4 -  4) =      3.15201  eV     1   --> A''            
     e(  5 -  5) =      8.56608  eV     1   --> A''            
     e(  6 -  6) =     10.46863  eV     1   --> A'             
     e(  7 -  7) =     12.41473  eV     1   --> A'             
     e(  8 -  8) =     12.67505  eV     1   --> A''            

 **************************************************************************

 **************************************************************************

                    xk=(  -0.86875,   0.63125,   0.00000  )

     Band symmetry, C_s (m)     point group:

     e(  1 -  1) =     -1.85211  eV     1   --> A'             
     e(  2 -  2) =     -1.04245  eV     1   --> A''            
     e(  3 -  3) =      2.04022  eV     1   --> A'             
     e(  4 -  4) =      3.20075  eV     1   --> A''            
     e(  5 -  5) =      8.47225  eV     1   --> A''            
     e(  6 -  6) =     10.46032  eV     1   --> A'             
     e(  7 -  7) =     12.48803  eV     1   --> A'             
     e(  8 -  8) =     12.76759  eV     1   --> A''            

 **************************************************************************

 **************************************************************************

                    xk=(  -0.86250,   0.63750,   0.00000  )

     Band symmetry, C_s (m)     point group:

     e(  1 -  1) =     -1.86552  eV     1   --> A'             
     e(  2 -  2) =     -1.03498  eV     1   --> A''            
     e(  3 -  3) =      2.02960  eV     1   --> A'             
     e(  4 -  4) =      3.24942  eV     1   --> A''            
     e(  5 -  5) =      8.38086  eV     1   --> A''            
     e(  6 -  6) =     10.45230  eV     1   --> A'             
     e(  7 -  7) =     12.56175  eV     1   --> A'             
     e(  8 -  8) =     12.86073  eV     1   --> A''            

 **************************************************************************

 **************************************************************************

                    xk=(  -0.85625,   0.64375,   0.00000  )

     Band symmetry, C_s (m)     point group:

     e(  1 -  1) =     -1.87820  eV     1   --> A'             
     e(  2 -  2) =     -1.02813  eV     1   --> A''            
     e(  3 -  3) =      2.01954  eV     1   --> A'             
     e(  4 -  4) =      3.29782  eV     1   --> A''            
     e(  5 -  5) =      8.29228  eV     1   --> A''            
     e(  6 -  6) =     10.44459  eV     1   --> A'             
     e(  7 -  7) =     12.63586  eV     1   --> A'             
     e(  8 -  8) =     12.95445  eV     1   --> A''            

 **************************************************************************

 **************************************************************************

                    xk=(  -0.85000,   0.65000,   0.00000  )

     Band symmetry, C_s (m)     point group:

     e(  1 -  1) =     -1.89017  eV     1   --> A'             
     e(  2 -  2) =     -1.02187  eV     1   --> A''            
     e(  3 -  3) =      2.01003  eV     1   --> A'             
     e(  4 -  4) =      3.34572  eV     1   --> A''            
     e(  5 -  5) =      8.20662  eV     1   --> A''            
     e(  6 -  6) =     10.43716  eV     1   --> A'             
     e(  7 -  7) =     12.71020  eV     1   --> A'             
     e(  8 -  8) =     13.04868  eV     1   --> A''            

 **************************************************************************

 **************************************************************************

                    xk=(  -0.84375,   0.65625,   0.00000  )

     Band symmetry, C_s (m)     point group:

     e(  1 -  1) =     -1.90141  eV     1   --> A'             
     e(  2 -  2) =     -1.01615  eV     1   --> A''            
     e(  3 -  3) =      2.00110  eV     1   --> A'             
     e(  4 -  4) =      3.39289  eV     1   --> A''            
     e(  5 -  5) =      8.12412  eV     1   --> A''            
     e(  6 -  6) =     10.43015  eV     1   --> A'             
     e(  7 -  7) =     12.78474  eV     1   --> A'             
     e(  8 -  8) =     13.14342  eV     1   --> A''            

 **************************************************************************

 **************************************************************************

                    xk=(  -0.83750,   0.66250,   0.00000  )

     Band symmetry, C_s (m)     point group:

     e(  1 -  1) =     -1.91193  eV     1   --> A'             
     e(  2 -  2) =     -1.01096  eV     1   --> A''            
     e(  3 -  3) =      1.99273  eV     1   --> A'             
     e(  4 -  4) =      3.43905  eV     1   --> A''            
     e(  5 -  5) =      8.04494  eV     1   --> A''            
     e(  6 -  6) =     10.42352  eV     1   --> A'             
     e(  7 -  7) =     12.85938  eV     1   --> A'             
     e(  8 -  8) =     13.23859  eV     1   --> A''            

 **************************************************************************

 **************************************************************************

                    xk=(  -0.83125,   0.66875,   0.00000  )

     Band symmetry, C_s (m)     point group:

     e(  1 -  1) =     -1.92172  eV     1   --> A'             
     e(  2 -  2) =     -1.00625  eV     1   --> A''            
     e(  3 -  3) =      1.98493  eV     1   --> A'             
     e(  4 -  4) =      3.48397  eV     1   --> A''            
     e(  5 -  5) =      7.96944  eV     1   --> A''            
     e(  6 -  6) =     10.41728  eV     1   --> A'             
     e(  7 -  7) =     12.93405  eV     1   --> A'             
     e(  8 -  8) =     13.33421  eV     1   --> A''            

 **************************************************************************

 **************************************************************************

                    xk=(  -0.82500,   0.67500,   0.00000  )

     Band symmetry, C_s (m)     point group:

     e(  1 -  1) =     -1.93079  eV     1   --> A'             
     e(  2 -  2) =     -1.00201  eV     1   --> A''            
     e(  3 -  3) =      1.97770  eV     1   --> A'             
     e(  4 -  4) =      3.52736  eV     1   --> A''            
     e(  5 -  5) =      7.89782  eV     1   --> A''            
     e(  6 -  6) =     10.41146  eV     1   --> A'             
     e(  7 -  7) =     13.00862  eV     1   --> A'             
     e(  8 -  8) =     13.43022  eV     1   --> A''            

 **************************************************************************

 **************************************************************************

                    xk=(  -0.81875,   0.68125,   0.00000  )

     Band symmetry, C_s (m)     point group:

     e(  1 -  1) =     -1.93914  eV     1   --> A'             
     e(  2 -  2) =     -0.99820  eV     1   --> A''            
     e(  3 -  3) =      1.97104  eV     1   --> A'             
     e(  4 -  4) =      3.56892  eV     1   --> A''            
     e(  5 -  5) =      7.83036  eV     1   --> A''            
     e(  6 -  6) =     10.40608  eV     1   --> A'             
     e(  7 -  7) =     13.08301  eV     1   --> A'             
     e(  8 -  8) =     13.52664  eV     1   --> A''            

 **************************************************************************

 **************************************************************************

                    xk=(  -0.81250,   0.68750,   0.00000  )

     Band symmetry, C_s (m)     point group:

     e(  1 -  1) =     -1.94676  eV     1   --> A'             
     e(  2 -  2) =     -0.99480  eV     1   --> A''            
     e(  3 -  3) =      1.96495  eV     1   --> A'             
     e(  4 -  4) =      3.60834  eV     1   --> A''            
     e(  5 -  5) =      7.76736  eV     1   --> A''            
     e(  6 -  6) =     10.40112  eV     1   --> A'             
     e(  7 -  7) =     13.15696  eV     1   --> A'             
     e(  8 -  8) =     13.62326  eV     1   --> A''            

 **************************************************************************

 **************************************************************************

                    xk=(  -0.80625,   0.69375,   0.00000  )

     Band symmetry, C_s (m)     point group:

     e(  1 -  1) =     -1.95365  eV     1   --> A'             
     e(  2 -  2) =     -0.99180  eV     1   --> A''            
     e(  3 -  3) =      1.95944  eV     1   --> A'             
     e(  4 -  4) =      3.64530  eV     1   --> A''            
     e(  5 -  5) =      7.70910  eV     1   --> A''            
     e(  6 -  6) =     10.39661  eV     1   --> A'             
     e(  7 -  7) =     13.23030  eV     1   --> A'             
     e(  8 -  8) =     13.72009  eV     1   --> A''            

 **************************************************************************

 **************************************************************************

                    xk=(  -0.80000,   0.70000,   0.00000  )

     Band symmetry, C_s (m)     point group:

     e(  1 -  1) =     -1.95982  eV     1   --> A'             
     e(  2 -  2) =     -0.98917  eV     1   --> A''            
     e(  3 -  3) =      1.95451  eV     1   --> A'             
     e(  4 -  4) =      3.67950  eV     1   --> A''            
     e(  5 -  5) =      7.65589  eV     1   --> A''            
     e(  6 -  6) =     10.39255  eV     1   --> A'             
     e(  7 -  7) =     13.30271  eV     1   --> A'             
     e(  8 -  8) =     13.81703  eV     1   --> A''            

 **************************************************************************

 **************************************************************************

                    xk=(  -0.79375,   0.70625,   0.00000  )

     Band symmetry, C_s (m)     point group:

     e(  1 -  1) =     -1.96527  eV     1   --> A'             
     e(  2 -  2) =     -0.98688  eV     1   --> A''            
     e(  3 -  3) =      1.95016  eV     1   --> A'             
     e(  4 -  4) =      3.71063  eV     1   --> A''            
     e(  5 -  5) =      7.60806  eV     1   --> A''            
     e(  6 -  6) =     10.38896  eV     1   --> A'             
     e(  7 -  7) =     13.37381  eV     1   --> A'             
     e(  8 -  8) =     13.91395  eV     1   --> A''            

 **************************************************************************

 **************************************************************************

                    xk=(  -0.78750,   0.71250,   0.00000  )

     Band symmetry, C_s (m)     point group:

     e(  1 -  1) =     -1.96998  eV     1   --> A'             
     e(  2 -  2) =     -0.98494  eV     1   --> A''            
     e(  3 -  3) =      1.94638  eV     1   --> A'             
     e(  4 -  4) =      3.73835  eV     1   --> A''            
     e(  5 -  5) =      7.56586  eV     1   --> A''            
     e(  6 -  6) =     10.38583  eV     1   --> A'             
     e(  7 -  7) =     13.44295  eV     1   --> A'             
     e(  8 -  8) =     14.01065  eV     1   --> A''            

 **************************************************************************

 **************************************************************************

                    xk=(  -0.78125,   0.71875,   0.00000  )

     Band symmetry, C_s (m)     point group:

     e(  1 -  1) =     -1.97398  eV     1   --> A'             
     e(  2 -  2) =     -0.98331  eV     1   --> A''            
     e(  3 -  3) =      1.94318  eV     1   --> A'             
     e(  4 -  4) =      3.76237  eV     1   --> A''            
     e(  5 -  5) =      7.52949  eV     1   --> A''            
     e(  6 -  6) =     10.38317  eV     1   --> A'             
     e(  7 -  7) =     13.50920  eV     1   --> A'             
     e(  8 -  8) =     14.10678  eV     1   --> A''            

 **************************************************************************

 **************************************************************************

                    xk=(  -0.77500,   0.72500,   0.00000  )

     Band symmetry, C_s (m)     point group:

     e(  1 -  1) =     -1.97725  eV     1   --> A'             
     e(  2 -  2) =     -0.98200  eV     1   --> A''            
     e(  3 -  3) =      1.94056  eV     1   --> A'             
     e(  4 -  4) =      3.78244  eV     1   --> A''            
     e(  5 -  5) =      7.49942  eV     1   --> A''            
     e(  6 -  6) =     10.38099  eV     1   --> A'             
     e(  7 -  7) =     13.57116  eV     1   --> A'             
     e(  8 -  8) =     14.20174  eV     1   --> A''            

 **************************************************************************

 **************************************************************************

                    xk=(  -0.76875,   0.73125,   0.00000  )

     Band symmetry, C_s (m)     point group:

     e(  1 -  1) =     -1.97979  eV     1   --> A'             
     e(  2 -  2) =     -0.98099  eV     1   --> A''            
     e(  3 -  3) =      1.93853  eV     1   --> A'             
     e(  4 -  4) =      3.79832  eV     1   --> A''            
     e(  5 -  5) =      7.47577  eV     1   --> A''            
     e(  6 -  6) =     10.37930  eV     1   --> A'             
     e(  7 -  7) =     13.62656  eV     1   --> A'             
     e(  8 -  8) =     14.29425  eV     1   --> A''            

 **************************************************************************

 **************************************************************************

                    xk=(  -0.76250,   0.73750,   0.00000  )

     Band symmetry, C_s (m)     point group:

     e(  1 -  1) =     -1.98160  eV     1   --> A'             
     e(  2 -  2) =     -0.98028  eV     1   --> A''            
     e(  3 -  3) =      1.93707  eV     1   --> A'             
     e(  4 -  4) =      3.80981  eV     1   --> A''            
     e(  5 -  5) =      7.45874  eV     1   --> A''            
     e(  6 -  6) =     10.37808  eV     1   --> A'             
     e(  7 -  7) =     13.67194  eV     1   --> A'             
     e(  8 -  8) =     14.31539  eV     1   --> A'             

 **************************************************************************

 **************************************************************************

                    xk=(  -0.75625,   0.74375,   0.00000  )

     Band symmetry, C_s (m)     point group:

     e(  1 -  1) =     -1.98269  eV     1   --> A'             
     e(  2 -  2) =     -0.97985  eV     1   --> A''            
     e(  3 -  3) =      1.93620  eV     1   --> A'             
     e(  4 -  4) =      3.81677  eV     1   --> A''            
     e(  5 -  5) =      7.44846  eV     1   --> A''            
     e(  6 -  6) =     10.37735  eV     1   --> A'             
     e(  7 -  7) =     13.70257  eV     1   --> A'             
     e(  8 -  8) =     14.28495  eV     1   --> A'             

 **************************************************************************

 **************************************************************************

                    xk=(  -0.75000,   0.75000,   0.00000  )

     point group C_2v (mm2) 
     there are  4 classes
     the character table:

       E     C2    s_v   s_v' 
A_1    1.00  1.00  1.00  1.00
A_2    1.00  1.00 -1.00 -1.00
B_1    1.00 -1.00  1.00 -1.00
B_2    1.00 -1.00 -1.00  1.00

     the symmetry operations in each class and the name of the first element:

     E        1
                                                                 
     C2       2
                                                                 
     s_v      4
                                                                 
     s_v'     3
                                                                 

     Band symmetry, C_2v (mm2)  point group:

     e(  1 -  1) =     -1.98306  eV     1   --> A_1  D_1  S_1  
     e(  2 -  2) =     -0.97970  eV     1   --> B_1  D_3  S_3  
     e(  3 -  3) =      1.93591  eV     1   --> A_1  D_1  S_1  
     e(  4 -  4) =      3.81910  eV     1   --> A_2  D_2  S_2  
     e(  5 -  5) =      7.44503  eV     1   --> B_1  D_3  S_3  
     e(  6 -  6) =     10.37711  eV     1   --> A_1  D_1  S_1  
     e(  7 -  7) =     13.71352  eV     1   --> B_2  D_4  S_4  
     e(  8 -  8) =     14.27405  eV     1   --> A_1  D_1  S_1  

 **************************************************************************

 **************************************************************************

                    xk=(  -0.73125,   0.73125,   0.00000  )

     Band symmetry, C_2v (mm2)  point group:

     e(  1 -  1) =     -2.07208  eV     1   --> A_1  D_1  S_1  
     e(  2 -  2) =     -0.88815  eV     1   --> B_1  D_3  S_3  
     e(  3 -  3) =      1.87938  eV     1   --> A_1  D_1  S_1  
     e(  4 -  4) =      3.88342  eV     1   --> A_2  D_2  S_2  
     e(  5 -  5) =      7.51941  eV     1   --> B_1  D_3  S_3  
     e(  6 -  6) =     10.75759  eV     1   --> A_1  D_1  S_1  
     e(  7 -  7) =     13.48292  eV     1   --> B_2  D_4  S_4  
     e(  8 -  8) =     14.03878  eV     1   --> A_1  D_1  S_1  

 **************************************************************************

 **************************************************************************

                    xk=(  -0.71250,   0.71250,   0.00000  )

     Band symmetry, C_2v (mm2)  point group:

     e(  1 -  1) =     -2.17109  eV     1   --> A_1  D_1  S_1  
     e(  2 -  2) =     -0.79008  eV     1   --> B_1  D_3  S_3  
     e(  3 -  3) =      1.84147  eV     1   --> A_1  D_1  S_1  
     e(  4 -  4) =      3.95162  eV     1   --> A_2  D_2  S_2  
     e(  5 -  5) =      7.59830  eV     1   --> B_1  D_3  S_3  
     e(  6 -  6) =     11.14194  eV     1   --> A_1  D_1  S_1  
     e(  7 -  7) =     13.25618  eV     1   --> B_2  D_4  S_4  
     e(  8 -  8) =     13.81238  eV     1   --> A_1  D_1  S_1  

 **************************************************************************

 **************************************************************************

                    xk=(  -0.69375,   0.69375,   0.00000  )

     Band symmetry, C_2v (mm2)  point group:

     e(  1 -  1) =     -2.27940  eV     1   --> A_1  D_1  S_1  
     e(  2 -  2) =     -0.68550  eV     1   --> B_1  D_3  S_3  
     e(  3 -  3) =      1.82197  eV     1   --> A_1  D_1  S_1  
     e(  4 -  4) =      4.02354  eV     1   --> A_2  D_2  S_2  
     e(  5 -  5) =      7.68145  eV     1   --> B_1  D_3  S_3  
     e(  6 -  6) =     11.52580  eV     1   --> A_1  D_1  S_1  
     e(  7 -  7) =     13.03367  eV     1   --> B_2  D_4  S_4  
     e(  8 -  8) =     13.59853  eV     1   --> A_1  D_1  S_1  

 **************************************************************************

 **************************************************************************

                    xk=(  -0.67500,   0.67500,   0.00000  )

     Band symmetry, C_2v (mm2)  point group:

     e(  1 -  1) =     -2.39603  eV     1   --> A_1  D_1  S_1  
     e(  2 -  2) =     -0.57447  eV     1   --> B_1  D_3  S_3  
     e(  3 -  3) =      1.82029  eV     1   --> A_1  D_1  S_1  
     e(  4 -  4) =      4.09895  eV     1   --> A_2  D_2  S_2  
     e(  5 -  5) =      7.76857  eV     1   --> B_1  D_3  S_3  
     e(  6 -  6) =     11.89926  eV     1   --> A_1  D_1  S_1  
     e(  7 -  7) =     12.81564  eV     1   --> B_2  D_4  S_4  
     e(  8 -  8) =     13.40605  eV     1   --> A_1  D_1  S_1  

 **************************************************************************

 **************************************************************************

                    xk=(  -0.65625,   0.65625,   0.00000  )

     Band symmetry, C_2v (mm2)  point group:

     e(  1 -  1) =     -2.51985  eV     1   --> A_1  D_1  S_1  
     e(  2 -  2) =     -0.45699  eV     1   --> B_1  D_3  S_3  
     e(  3 -  3) =      1.83562  eV     1   --> A_1  D_1  S_1  
     e(  4 -  4) =      4.17764  eV     1   --> A_2  D_2  S_2  
     e(  5 -  5) =      7.85940  eV     1   --> B_1  D_3  S_3  
     e(  6 -  6) =     12.23415  eV     1   --> A_1  D_1  S_1  
     e(  7 -  7) =     12.60238  eV     1   --> B_2  D_4  S_4  
     e(  8 -  8) =     13.26280  eV     1   --> A_1  D_1  S_1  

 **************************************************************************

 **************************************************************************

                    xk=(  -0.63750,   0.63750,   0.00000  )

     Band symmetry, C_2v (mm2)  point group:

     e(  1 -  1) =     -2.64962  eV     1   --> A_1  D_1  S_1  
     e(  2 -  2) =     -0.33309  eV     1   --> B_1  D_3  S_3  
     e(  3 -  3) =      1.86697  eV     1   --> A_1  D_1  S_1  
     e(  4 -  4) =      4.25936  eV     1   --> A_2  D_2  S_2  
     e(  5 -  5) =      7.95354  eV     1   --> B_1  D_3  S_3  
     e(  6 -  6) =     12.39405  eV     1   --> B_2  D_4  S_4  
     e(  7 -  7) =     12.44371  eV     1   --> A_1  D_1  S_1  
     e(  8 -  8) =     13.25447  eV     1   --> A_1  D_1  S_1  

 **************************************************************************

 **************************************************************************

                    xk=(  -0.61875,   0.61875,   0.00000  )

     Band symmetry, C_2v (mm2)  point group:

     e(  1 -  1) =     -2.78408  eV     1   --> A_1  D_1  S_1  
[...]

 **************************************************************************

                    xk=(  -0.12500,   0.12500,   0.12500  )

     Band symmetry, C_3v (3m)   point group:

     e(  1 -  1) =     -5.51515  eV     1   --> A_1  L_1       
     e(  2 -  2) =      4.65226  eV     1   --> A_1  L_1       
     e(  3 -  4) =      5.96480  eV     2   --> E    L_3       
     e(  5 -  5) =      8.74837  eV     1   --> A_1  L_1       
     e(  6 -  7) =      9.22775  eV     2   --> E    L_3       
     e(  8 -  8) =     10.97186  eV     1   --> A_1  L_1       

 **************************************************************************

 **************************************************************************

                    xk=(  -0.13750,   0.13750,   0.13750  )

     Band symmetry, C_3v (3m)   point group:

     e(  1 -  1) =     -5.47255  eV     1   --> A_1  L_1       
     e(  2 -  2) =      4.41906  eV     1   --> A_1  L_1       
     e(  3 -  4) =      5.91683  eV     2   --> E    L_3       
     e(  5 -  5) =      8.70654  eV     1   --> A_1  L_1       
     e(  6 -  7) =      9.29616  eV     2   --> E    L_3       
     e(  8 -  8) =     11.19171  eV     1   --> A_1  L_1       

 **************************************************************************

 **************************************************************************

                    xk=(  -0.15000,   0.15000,   0.15000  )

     Band symmetry, C_3v (3m)   point group:

     e(  1 -  1) =     -5.42602  eV     1   --> A_1  L_1       
     e(  2 -  2) =      4.18369  eV     1   --> A_1  L_1       
     e(  3 -  4) =      5.86799  eV     2   --> E    L_3       
     e(  5 -  5) =      8.66184  eV     1   --> A_1  L_1       
     e(  6 -  7) =      9.36407  eV     2   --> E    L_3       
     e(  8 -  8) =     11.41467  eV     1   --> A_1  L_1       

 **************************************************************************

 **************************************************************************

                    xk=(  -0.16250,   0.16250,   0.16250  )

     Band symmetry, C_3v (3m)   point group:

     e(  1 -  1) =     -5.37560  eV     1   --> A_1  L_1       
     e(  2 -  2) =      3.94732  eV     1   --> A_1  L_1       
     e(  3 -  4) =      5.81879  eV     2   --> E    L_3       
     e(  5 -  5) =      8.61509  eV     1   --> A_1  L_1       
     e(  6 -  7) =      9.43014  eV     2   --> E    L_3       
     e(  8 -  8) =     11.63928  eV     1   --> A_1  L_1       

 **************************************************************************

 **************************************************************************

                    xk=(  -0.17500,   0.17500,   0.17500  )

     Band symmetry, C_3v (3m)   point group:

     e(  1 -  1) =     -5.32134  eV     1   --> A_1  L_1       
     e(  2 -  2) =      3.71074  eV     1   --> A_1  L_1       
     e(  3 -  4) =      5.76950  eV     2   --> E    L_3       
     e(  5 -  5) =      8.56705  eV     1   --> A_1  L_1       
     e(  6 -  7) =      9.49302  eV     2   --> E    L_3       
     e(  8 -  8) =     11.86454  eV     1   --> A_1  L_1       

 **************************************************************************

 **************************************************************************

                    xk=(  -0.18750,   0.18750,   0.18750  )

     Band symmetry, C_3v (3m)   point group:

     e(  1 -  1) =     -5.26330  eV     1   --> A_1  L_1       
     e(  2 -  2) =      3.47464  eV     1   --> A_1  L_1       
     e(  3 -  4) =      5.72070  eV     2   --> E    L_3       
     e(  5 -  5) =      8.51828  eV     1   --> A_1  L_1       
     e(  6 -  7) =      9.55151  eV     2   --> E    L_3       
     e(  8 -  8) =     12.08952  eV     1   --> A_1  L_1       

 **************************************************************************

 **************************************************************************

                    xk=(  -0.20000,   0.20000,   0.20000  )

     Band symmetry, C_3v (3m)   point group:

     e(  1 -  1) =     -5.20153  eV     1   --> A_1  L_1       
     e(  2 -  2) =      3.23963  eV     1   --> A_1  L_1       
     e(  3 -  4) =      5.67258  eV     2   --> E    L_3       
     e(  5 -  5) =      8.46931  eV     1   --> A_1  L_1       
     e(  6 -  7) =      9.60455  eV     2   --> E    L_3       
     e(  8 -  8) =     12.31347  eV     1   --> A_1  L_1       

 **************************************************************************

 **************************************************************************

                    xk=(  -0.21250,   0.21250,   0.21250  )

     Band symmetry, C_3v (3m)   point group:

     e(  1 -  1) =     -5.13612  eV     1   --> A_1  L_1       
     e(  2 -  2) =      3.00618  eV     1   --> A_1  L_1       
     e(  3 -  4) =      5.62536  eV     2   --> E    L_3       
     e(  5 -  5) =      8.42055  eV     1   --> A_1  L_1       
     e(  6 -  7) =      9.65105  eV     2   --> E    L_3       
     e(  8 -  8) =     12.53555  eV     1   --> A_1  L_1       

 **************************************************************************

 **************************************************************************

                    xk=(  -0.22500,   0.22500,   0.22500  )

     Band symmetry, C_3v (3m)   point group:

     e(  1 -  1) =     -5.06714  eV     1   --> A_1  L_1       
     e(  2 -  2) =      2.77477  eV     1   --> A_1  L_1       
     e(  3 -  4) =      5.57934  eV     2   --> E    L_3       
     e(  5 -  5) =      8.37240  eV     1   --> A_1  L_1       
     e(  6 -  7) =      9.69043  eV     2   --> E    L_3       
     e(  8 -  8) =     12.75491  eV     1   --> A_1  L_1       

 **************************************************************************

 **************************************************************************

                    xk=(  -0.23750,   0.23750,   0.23750  )

     Band symmetry, C_3v (3m)   point group:

     e(  1 -  1) =     -4.99470  eV     1   --> A_1  L_1       
     e(  2 -  2) =      2.54580  eV     1   --> A_1  L_1       
     e(  3 -  4) =      5.53464  eV     2   --> E    L_3       
     e(  5 -  5) =      8.32510  eV     1   --> A_1  L_1       
     e(  6 -  7) =      9.72222  eV     2   --> E    L_3       
     e(  8 -  8) =     12.97031  eV     1   --> A_1  L_1       

 **************************************************************************

 **************************************************************************

                    xk=(  -0.25000,   0.25000,   0.25000  )

     Band symmetry, C_3v (3m)   point group:

     e(  1 -  1) =     -4.91891  eV     1   --> A_1  L_1       
     e(  2 -  2) =      2.31963  eV     1   --> A_1  L_1       
     e(  3 -  4) =      5.49146  eV     2   --> E    L_3       
     e(  5 -  5) =      8.27896  eV     1   --> A_1  L_1       
     e(  6 -  7) =      9.74635  eV     2   --> E    L_3       
     e(  8 -  8) =     13.18014  eV     1   --> A_1  L_1       

 **************************************************************************

 **************************************************************************

                    xk=(  -0.26250,   0.26250,   0.26250  )

     Band symmetry, C_3v (3m)   point group:

     e(  1 -  1) =     -4.83990  eV     1   --> A_1  L_1       
     e(  2 -  2) =      2.09657  eV     1   --> A_1  L_1       
     e(  3 -  4) =      5.44992  eV     2   --> E    L_3       
     e(  5 -  5) =      8.23418  eV     1   --> A_1  L_1       
     e(  6 -  7) =      9.76298  eV     2   --> E    L_3       
     e(  8 -  8) =     13.38198  eV     1   --> A_1  L_1       

 **************************************************************************

 **************************************************************************

                    xk=(  -0.27500,   0.27500,   0.27500  )

     Band symmetry, C_3v (3m)   point group:

     e(  1 -  1) =     -4.75784  eV     1   --> A_1  L_1       
     e(  2 -  2) =      1.87707  eV     1   --> A_1  L_1       
     e(  3 -  4) =      5.41013  eV     2   --> E    L_3       
     e(  5 -  5) =      8.19097  eV     1   --> A_1  L_1       
     e(  6 -  7) =      9.77254  eV     2   --> E    L_3       
     e(  8 -  8) =     13.57215  eV     1   --> A_1  L_1       

 **************************************************************************

 **************************************************************************

                    xk=(  -0.28750,   0.28750,   0.28750  )

     Band symmetry, C_3v (3m)   point group:

     e(  1 -  1) =     -4.67290  eV     1   --> A_1  L_1       
     e(  2 -  2) =      1.66143  eV     1   --> A_1  L_1       
     e(  3 -  4) =      5.37218  eV     2   --> E    L_3       
     e(  5 -  5) =      8.14948  eV     1   --> A_1  L_1       
     e(  6 -  7) =      9.77567  eV     2   --> E    L_3       
     e(  8 -  8) =     13.71966  eV     1   -->   ?

 **************************************************************************

 **************************************************************************

                    xk=(  -0.30000,   0.30000,   0.30000  )

     Band symmetry, C_3v (3m)   point group:

     e(  1 -  1) =     -4.58531  eV     1   --> A_1  L_1       
     e(  2 -  2) =      1.45003  eV     1   --> A_1  L_1       
     e(  3 -  4) =      5.33616  eV     2   --> E    L_3       
     e(  5 -  5) =      8.10986  eV     1   --> A_1  L_1       
     e(  6 -  7) =      9.77318  eV     2   --> E    L_3       
     e(  8 -  8) =     13.84238  eV     1   -->   ?

 **************************************************************************

 **************************************************************************

                    xk=(  -0.31250,   0.31250,   0.31250  )

     Band symmetry, C_3v (3m)   point group:

     e(  1 -  1) =     -4.49534  eV     1   --> A_1  L_1       
     e(  2 -  2) =      1.24324  eV     1   --> A_1  L_1       
     e(  3 -  4) =      5.30213  eV     2   --> E    L_3       
     e(  5 -  5) =      8.07223  eV     1   --> A_1  L_1       
     e(  6 -  7) =      9.76594  eV     2   --> E    L_3       
     e(  8 -  8) =     13.97870  eV     1   -->   ?

 **************************************************************************

 **************************************************************************

                    xk=(  -0.32500,   0.32500,   0.32500  )

     Band symmetry, C_3v (3m)   point group:

     e(  1 -  1) =     -4.40329  eV     1   --> A_1  L_1       
     e(  2 -  2) =      1.04151  eV     1   --> A_1  L_1       
     e(  3 -  4) =      5.27015  eV     2   --> E    L_3       
     e(  5 -  5) =      8.03671  eV     1   --> A_1  L_1       
     e(  6 -  7) =      9.75487  eV     2   --> E    L_3       
     e(  8 -  8) =     14.08993  eV     1   --> A_1  L_1       

 **************************************************************************

 **************************************************************************

                    xk=(  -0.33750,   0.33750,   0.33750  )

     Band symmetry, C_3v (3m)   point group:

     e(  1 -  1) =     -4.30958  eV     1   --> A_1  L_1       
     e(  2 -  2) =      0.84532  eV     1   --> A_1  L_1       
     e(  3 -  4) =      5.24019  eV     2   --> E    L_3       
     e(  5 -  5) =      8.00330  eV     1   --> A_1  L_1       
     e(  6 -  7) =      9.74078  eV     2   --> E    L_3       
     e(  8 -  8) =     14.13434  eV     1   --> A_1  L_1       

 **************************************************************************

 **************************************************************************

                    xk=(  -0.35000,   0.35000,   0.35000  )

     Band symmetry, C_3v (3m)   point group:

     e(  1 -  1) =     -4.21467  eV     1   --> A_1  L_1       
     e(  2 -  2) =      0.65522  eV     1   --> A_1  L_1       
     e(  3 -  4) =      5.21242  eV     2   --> E    L_3       
     e(  5 -  5) =      7.97218  eV     1   --> A_1  L_1       
     e(  6 -  7) =      9.72465  eV     2   --> E    L_3       
     e(  8 -  8) =     14.15108  eV     1   --> A_1  L_1       

 **************************************************************************

 **************************************************************************

                    xk=(  -0.36250,   0.36250,   0.36250  )

     Band symmetry, C_3v (3m)   point group:

     e(  1 -  1) =     -4.11914  eV     1   --> A_1  L_1       
     e(  2 -  2) =      0.47188  eV     1   --> A_1  L_1       
     e(  3 -  4) =      5.18680  eV     2   --> E    L_3       
     e(  5 -  5) =      7.94338  eV     1   --> A_1  L_1       
     e(  6 -  7) =      9.70720  eV     2   --> E    L_3       
     e(  8 -  8) =     14.14901  eV     1   --> A_1  L_1       

 **************************************************************************

 **************************************************************************

                    xk=(  -0.37500,   0.37500,   0.37500  )

     Band symmetry, C_3v (3m)   point group:

     e(  1 -  1) =     -4.02370  eV     1   --> A_1  L_1       
     e(  2 -  2) =      0.29606  eV     1   --> A_1  L_1       
     e(  3 -  4) =      5.16333  eV     2   --> E    L_3       
     e(  5 -  5) =      7.91691  eV     1   --> A_1  L_1       
     e(  6 -  7) =      9.68904  eV     2   --> E    L_3       
     e(  8 -  8) =     14.13548  eV     1   --> A_1  L_1       

 **************************************************************************

 **************************************************************************

                    xk=(  -0.38750,   0.38750,   0.38750  )

     Band symmetry, C_3v (3m)   point group:

     e(  1 -  1) =     -3.92924  eV     1   --> A_1  L_1       
     e(  2 -  2) =      0.12871  eV     1   --> A_1  L_1       
     e(  3 -  4) =      5.14209  eV     2   --> E    L_3       
     e(  5 -  5) =      7.89287  eV     1   --> A_1  L_1       
     e(  6 -  7) =      9.67100  eV     2   --> E    L_3       
     e(  8 -  8) =     14.11574  eV     1   --> A_1  L_1       

 **************************************************************************

 **************************************************************************

                    xk=(  -0.40000,   0.40000,   0.40000  )

     Band symmetry, C_3v (3m)   point group:

     e(  1 -  1) =     -3.83682  eV     1   --> A_1  L_1       
     e(  2 -  2) =     -0.02903  eV     1   --> A_1  L_1       
     e(  3 -  4) =      5.12305  eV     2   --> E    L_3       
     e(  5 -  5) =      7.87129  eV     1   --> A_1  L_1       
     e(  6 -  7) =      9.65352  eV     2   --> E    L_3       
     e(  8 -  8) =     14.09324  eV     1   --> A_1  L_1       

 **************************************************************************

 **************************************************************************

                    xk=(  -0.41250,   0.41250,   0.41250  )

     Band symmetry, C_3v (3m)   point group:

     e(  1 -  1) =     -3.74779  eV     1   --> A_1  L_1       
     e(  2 -  2) =     -0.17580  eV     1   --> A_1  L_1       
     e(  3 -  4) =      5.10624  eV     2   --> E    L_3       
     e(  5 -  5) =      7.85223  eV     1   --> A_1  L_1       
     e(  6 -  7) =      9.63707  eV     2   --> E    L_3       
     e(  8 -  8) =     14.07032  eV     1   --> A_1  L_1       

 **************************************************************************

 **************************************************************************

                    xk=(  -0.42500,   0.42500,   0.42500  )

     Band symmetry, C_3v (3m)   point group:

     e(  1 -  1) =     -3.66374  eV     1   --> A_1  L_1       
     e(  2 -  2) =     -0.30996  eV     1   --> A_1  L_1       
     e(  3 -  4) =      5.09166  eV     2   --> E    L_3       
     e(  5 -  5) =      7.83562  eV     1   --> A_1  L_1       
     e(  6 -  7) =      9.62207  eV     2   --> E    L_3       
     e(  8 -  8) =     14.04846  eV     1   --> A_1  L_1       

 **************************************************************************

 **************************************************************************

                    xk=(  -0.43750,   0.43750,   0.43750  )

     Band symmetry, C_3v (3m)   point group:

     e(  1 -  1) =     -3.58661  eV     1   --> A_1  L_1       
     e(  2 -  2) =     -0.42955  eV     1   --> A_1  L_1       
     e(  3 -  4) =      5.07931  eV     2   --> E    L_3       
     e(  5 -  5) =      7.82153  eV     1   --> A_1  L_1       
     e(  6 -  7) =      9.60884  eV     2   --> E    L_3       
     e(  8 -  8) =     14.02873  eV     1   --> A_1  L_1       

 **************************************************************************

 **************************************************************************

                    xk=(  -0.45000,   0.45000,   0.45000  )

     Band symmetry, C_3v (3m)   point group:

     e(  1 -  1) =     -3.51858  eV     1   --> A_1  L_1       
     e(  2 -  2) =     -0.53235  eV     1   --> A_1  L_1       
     e(  3 -  4) =      5.06921  eV     2   --> E    L_3       
     e(  5 -  5) =      7.80998  eV     1   --> A_1  L_1       
     e(  6 -  7) =      9.59764  eV     2   --> E    L_3       
     e(  8 -  8) =     14.01183  eV     1   --> A_1  L_1       

 **************************************************************************

 **************************************************************************

                    xk=(  -0.46250,   0.46250,   0.46250  )

     Band symmetry, C_3v (3m)   point group:

     e(  1 -  1) =     -3.46206  eV     1   --> A_1  L_1       
     e(  2 -  2) =     -0.61593  eV     1   --> A_1  L_1       
     e(  3 -  4) =      5.06135  eV     2   --> E    L_3       
     e(  5 -  5) =      7.80099  eV     1   --> A_1  L_1       
     e(  6 -  7) =      9.58875  eV     2   --> E    L_3       
     e(  8 -  8) =     13.99826  eV     1   --> A_1  L_1       

 **************************************************************************

 **************************************************************************

                    xk=(  -0.47500,   0.47500,   0.47500  )

     Band symmetry, C_3v (3m)   point group:

     e(  1 -  1) =     -3.41946  eV     1   --> A_1  L_1       
     e(  2 -  2) =     -0.67786  eV     1   --> A_1  L_1       
     e(  3 -  4) =      5.05573  eV     2   --> E    L_3       
     e(  5 -  5) =      7.79456  eV     1   --> A_1  L_1       
     e(  6 -  7) =      9.58226  eV     2   --> E    L_3       
     e(  8 -  8) =     13.98840  eV     1   --> A_1  L_1       

 **************************************************************************

 **************************************************************************

                    xk=(  -0.48750,   0.48750,   0.48750  )

     Band symmetry, C_3v (3m)   point group:

     e(  1 -  1) =     -3.39290  eV     1   --> A_1  L_1       
     e(  2 -  2) =     -0.71602  eV     1   --> A_1  L_1       
     e(  3 -  4) =      5.05236  eV     2   --> E    L_3       
     e(  5 -  5) =      7.79070  eV     1   --> A_1  L_1       
     e(  6 -  7) =      9.57833  eV     2   --> E    L_3       
     e(  8 -  8) =     13.98238  eV     1   --> A_1  L_1       

 **************************************************************************

 **************************************************************************

                    xk=(  -0.50000,   0.50000,   0.50000  )

     zone border point and non-symmorphic group 
     symmetry decomposition not available

 **************************************************************************

     BANDS        :      1.44s CPU      1.56s WALL


   This run was terminated on:  14:13: 0   1Nov2025            

=------------------------------------------------------------------------------=
   JOB DONE.
=------------------------------------------------------------------------------=
