
     Program PWSCF v.7.4.1 starts on  1Nov2025 at 14:12:52 

     This program is part of the open-source Quantum ESPRESSO suite
     for quantum simulation of materials; please cite
         "P. Giannozzi et al., J. Phys.:Condens. Matter 21 395502 (2009);
         "P. Giannozzi et al., J. Phys.:Condens. Matter 29 465901 (2017);
         "P. Giannozzi et al., J. Chem. Phys. 152 154105 (2020);
          URL http://www.quantum-espresso.org", 
     in publications or presentations arising from this work. More details at
     http://www.quantum-espresso.org/quote

     Parallel version (MPI), running on     2 processors

     MPI processes distributed on     1 nodes
     0 MiB available memory on the printing compute node when the environment starts

     Reading input from scf.in

     Current dimensions of program PWSCF are:
     Max number of different atomic species (ntypx) = 10
     Max number of k-points (npk) =  40000
     Max angular momentum in pseudopotentials (lmaxx) =  4

     R & G space division:  proc/nbgrp/npool/nimage =       2
     Subspace diagonalization in iterative solution of the eigenvalue problem:
     a serial algorithm will be used


     Parallelization info
     --------------------
     sticks:   dense  smooth     PW     G-vecs:    dense   smooth      PW
     Min         429     216     69                 8432     2980     533
     Max         430     217     70                 8433     2981     534
     Sum         859     433    139                16865     5961    1067

     Using Slab Decomposition



     bravais-lattice index     =            2
     lattice parameter (alat)  =      10.2600  a.u.
     unit-cell volume          =     270.0114 (a.u.)^3
     number of atoms/cell      =            2
     number of atomic types    =            1
     number of electrons       =         8.00
     number of Kohn-Sham states=            8
     kinetic-energy cutoff     =      30.0000  Ry
     charge density cutoff     =     240.0000  Ry
     scf convergence threshold =      1.0E-08
     mixing beta               =       0.7000
     number of iterations used =            8  plain     mixing
     Exchange-correlation= PBE
                           (   1   4   3   4   0   0   0)

     celldm(1)=  10.260000  celldm(2)=   0.000000  celldm(3)=   0.000000
     celldm(4)=   0.000000  celldm(5)=   0.000000  celldm(6)=   0.000000

     crystal axes: (cart. coord. in units of alat)
               a(1) = (  -0.500000   0.000000   0.500000 )  
               a(2) = (   0.000000   0.500000   0.500000 )  
               a(3) = (  -0.500000   0.500000   0.000000 )  

     reciprocal axes: (cart. coord. in units 2 pi/alat)
               b(1) = ( -1.000000 -1.000000  1.000000 )  
               b(2) = (  1.000000  1.000000  1.000000 )  
               b(3) = ( -1.000000  1.000000 -1.000000 )  


     PseudoPot. # 1 for Si read from file:
     /Users/pollob/qe_macm4_build/cases/common/pp/Si.pbe-n-rrkjus_psl.1.0.0.UPF
     MD5 check sum: fa25574f73a70a4139f2adfbefec430c
     Pseudo is Ultrasoft + core correction, Zval =  4.0
     Generated using &quot;atomic&quot; code by A. Dal Corso  v.6.3
     Using radial grid of 1141 points,  6 beta functions with: 
                l(1) =   0
                l(2) =   0
                l(3) =   1
                l(4) =   1
                l(5) =   2
                l(6) =   2
     Q(r) pseudized with 0 coefficients 


     atomic species   valence    mass     pseudopotential
     Si                4.00    28.08500     Si( 1.00)

     48 Sym. Ops., with inversion, found (24 have fractional translation)



   Cartesian axes

     site n.     atom                  positions (alat units)
         1        Si     tau(   1) = (   0.0000000   0.0000000   0.0000000  )
         2        Si     tau(   2) = (  -0.2500000   0.2500000   0.2500000  )

     number of k points=     8  Methfessel-Paxton smearing, width (Ry)=  0.0200
                       cart. coord. in units 2pi/alat
        k(    1) = (   0.0000000   0.0000000   0.0000000), wk =   0.0312500
        k(    2) = (  -0.2500000   0.2500000  -0.2500000), wk =   0.2500000
        k(    3) = (   0.5000000  -0.5000000   0.5000000), wk =   0.1250000
        k(    4) = (   0.0000000   0.5000000   0.0000000), wk =   0.1875000
        k(    5) = (   0.7500000  -0.2500000   0.7500000), wk =   0.7500000
        k(    6) = (   0.5000000   0.0000000   0.5000000), wk =   0.3750000
        k(    7) = (   0.0000000  -1.0000000   0.0000000), wk =   0.0937500
        k(    8) = (  -0.5000000  -1.0000000   0.0000000), wk =   0.1875000

     Dense  grid:    16865 G-vectors     FFT dimensions: (  36,  36,  36)

     Smooth grid:     5961 G-vectors     FFT dimensions: (  32,  32,  32)

     Estimated max dynamical RAM per process >      31.12 MB

     Estimated total dynamical RAM >      62.24 MB

     Initial potential from superposition of free atoms

     starting charge       7.9989, renormalised to       8.0000
     Starting wfcs are    8 randomized atomic wfcs

     total cpu time spent up to now is        0.1 secs

     Self-consistent Calculation

     iteration #  1     ecut=    30.00 Ry     beta= 0.70
     Davidson diagonalization with overlap
     ethr =  1.00E-02,  avg # of iterations =  3.8

     Threshold (ethr) on eigenvalues was too large:
     Diagonalizing with lowered threshold

     Davidson diagonalization with overlap
     ethr =  7.20E-04,  avg # of iterations =  1.4

     total cpu time spent up to now is        0.2 secs

     total energy              =     -22.82284395 Ry
     estimated scf accuracy    <       0.06192299 Ry

     iteration #  2     ecut=    30.00 Ry     beta= 0.70
     Davidson diagonalization with overlap
     ethr =  7.74E-04,  avg # of iterations =  1.0

     total cpu time spent up to now is        0.3 secs

     WARNING: integrated charge=     7.99839275, expected=     8.00000000

     total energy              =     -22.82638185 Ry
     estimated scf accuracy    <       0.00249894 Ry

     iteration #  3     ecut=    30.00 Ry     beta= 0.70
     Davidson diagonalization with overlap
     ethr =  3.12E-05,  avg # of iterations =  3.8

     total cpu time spent up to now is        0.3 secs

     WARNING: integrated charge=     7.99732640, expected=     8.00000000

     total energy              =     -22.82696436 Ry
     estimated scf accuracy    <       0.00005445 Ry

     iteration #  4     ecut=    30.00 Ry     beta= 0.70
     Davidson diagonalization with overlap
     ethr =  6.81E-07,  avg # of iterations =  2.9

     total cpu time spent up to now is        0.4 secs

     WARNING: integrated charge=     7.99755392, expected=     8.00000000

     total energy              =     -22.82682159 Ry
     estimated scf accuracy    <       0.00000016 Ry

     iteration #  5     ecut=    30.00 Ry     beta= 0.70
     Davidson diagonalization with overlap
     ethr =  2.06E-09,  avg # of iterations =  3.9

     total cpu time spent up to now is        0.4 secs

     WARNING: integrated charge=     7.99760752, expected=     8.00000000

     total energy              =     -22.82681024 Ry
     estimated scf accuracy    <       0.00000001 Ry

     iteration #  6     ecut=    30.00 Ry     beta= 0.70
     Davidson diagonalization with overlap
     ethr =  1.30E-10,  avg # of iterations =  2.0

     total cpu time spent up to now is        0.5 secs

     End of self-consistent calculation

          k = 0.0000 0.0000 0.0000 (   725 PWs)   bands (ev):

    -5.7196   6.2563   6.2563   6.2563   8.8008   8.8008   8.8008   9.6277

          k =-0.2500 0.2500-0.2500 (   754 PWs)   bands (ev):

    -4.9190   2.3196   5.4914   5.4914   8.2789   9.7463   9.7463  13.1802

          k = 0.5000-0.5000 0.5000 (   754 PWs)   bands (ev):

    -3.3839  -0.7290   5.0512   5.0512   7.7894   9.5770   9.5770  13.9803

          k = 0.0000 0.5000 0.0000 (   729 PWs)   bands (ev):

    -4.6365   2.7364   4.3555   4.3555   7.3713   9.3751  12.0078  12.0078

          k = 0.7500-0.2500 0.7500 (   748 PWs)   bands (ev):

    -2.9977  -0.1362   2.7075   4.0399   7.7614  10.6969  11.9984  12.1644

          k = 0.5000 0.0000 0.5000 (   754 PWs)   bands (ev):

    -3.6731   0.7680   2.4873   4.9208   8.6923  11.0303  11.3927  12.3973

          k = 0.0000-1.0000 0.0000 (   740 PWs)   bands (ev):

    -1.5701  -1.5701   3.3906   3.3906   6.9505   6.9505  16.3569  16.3569

          k =-0.5000-1.0000 0.0000 (   744 PWs)   bands (ev):

    -1.4050  -1.4050   2.3861   2.3861  10.5205  10.5205  11.2476  11.2476

     the Fermi energy is     6.5336 ev

     WARNING: integrated charge=     7.99760772, expected=     8.00000000

!    total energy              =     -22.82680638 Ry
     estimated scf accuracy    <          5.1E-10 Ry
     smearing contrib. (-TS)   =       0.00028845 Ry
     internal energy E=F+TS    =     -22.82709483 Ry

     The total energy is F=E-TS. E is the sum of the following terms:
     one-electron contribution =       5.16929780 Ry
     hartree contribution      =       1.12487758 Ry
     xc contribution           =     -12.32034064 Ry
     ewald contribution        =     -16.80092958 Ry

     convergence has been achieved in   6 iterations

     Writing all to output data dir ./tmp_kmesh_4/kmesh_4.save/ :
     XML data file, charge density, pseudopotentials, collected wavefunctions

     init_run     :      0.09s CPU      0.09s WALL (       1 calls)
     electrons    :      0.31s CPU      0.33s WALL (       1 calls)

     Called by init_run:
     wfcinit      :      0.01s CPU      0.01s WALL (       1 calls)
     potinit      :      0.01s CPU      0.01s WALL (       1 calls)
     hinit0       :      0.05s CPU      0.05s WALL (       1 calls)

     Called by electrons:
     c_bands      :      0.15s CPU      0.16s WALL (       7 calls)
     sum_band     :      0.08s CPU      0.09s WALL (       7 calls)
     v_of_rho     :      0.02s CPU      0.02s WALL (       7 calls)
     newd         :      0.05s CPU      0.06s WALL (       7 calls)
     mix_rho      :      0.00s CPU      0.00s WALL (       7 calls)

     Called by c_bands:
     init_us_2    :      0.00s CPU      0.00s WALL (     120 calls)
     cegterg      :      0.14s CPU      0.15s WALL (      56 calls)

     Called by *egterg:
     cdiaghg      :      0.01s CPU      0.01s WALL (     197 calls)
     h_psi        :      0.12s CPU      0.13s WALL (     213 calls)
     s_psi        :      0.00s CPU      0.00s WALL (     213 calls)
     g_psi        :      0.00s CPU      0.00s WALL (     149 calls)

     Called by h_psi:
     h_psi:calbec :      0.01s CPU      0.01s WALL (     213 calls)
     vloc_psi     :      0.11s CPU      0.11s WALL (     213 calls)
     add_vuspsi   :      0.00s CPU      0.00s WALL (     213 calls)

     General routines
     calbec       :      0.01s CPU      0.01s WALL (     269 calls)
     fft          :      0.01s CPU      0.01s WALL (      90 calls)
     ffts         :      0.00s CPU      0.00s WALL (      14 calls)
     fftw         :      0.11s CPU      0.12s WALL (    2924 calls)
     interpolate  :      0.00s CPU      0.00s WALL (       7 calls)

     Parallel routines

     PWSCF        :      0.43s CPU      0.47s WALL


   This run was terminated on:  14:12:53   1Nov2025            

=------------------------------------------------------------------------------=
   JOB DONE.
=------------------------------------------------------------------------------=
Note: The following floating-point exceptions are signalling: IEEE_UNDERFLOW_FLAG
Note: The following floating-point exceptions are signalling: IEEE_INVALID_FLAG IEEE_DIVIDE_BY_ZERO IEEE_UNDERFLOW_FLAG
